/*--------------------------------*- C++ -*----------------------------------*\
| =========                 |                                                 |
| \\      /  F ield         | OpenFOAM: The Open Source CFD Toolbox           |
|  \\    /   O peration     | Version:  2406                                  |
|   \\  /    A nd           | Website:  www.openfoam.com                      |
|    \\/     M anipulation  |                                                 |
\*---------------------------------------------------------------------------*/
FoamFile
{
    version     2.0;
    format      ascii;
    arch        "LSB;label=32;scalar=64";
    class       volScalarField;
    location    "0";
    object      k;
}
// * * * * * * * * * * * * * * * * * * * * * * * * * * * * * * * * * * * * * //

dimensions      [0 2 -2 0 0 0 0];

internalField   uniform 0.01;

boundaryField
{
    aerofoil
    {
        type            kqRWallFunction;
        value           uniform 0.01;
    }
    inlet
    {
        type            inletOutlet;
        inletValue      nonuniform List<scalar> 0();
        value           nonuniform List<scalar> 0();
    }
    outlet
    {
        type            inletOutlet;
        inletValue      nonuniform List<scalar> 0();
        value           nonuniform List<scalar> 0();
    }
    back
    {
        type            empty;
    }
    front
    {
        type            empty;
    }
    procBoundary0to1
    {
        type            processor;
        value           uniform 0.01;
    }
    procBoundary0to4
    {
        type            processor;
        value           uniform 0.01;
    }
    procBoundary0to7
    {
        type            processor;
        value           uniform 0.01;
    }
    procBoundary0to9
    {
        type            processor;
        value           uniform 0.01;
    }
}


// ************************************************************************* //
