/*--------------------------------*- C++ -*----------------------------------*\
| =========                 |                                                 |
| \\      /  F ield         | OpenFOAM: The Open Source CFD Toolbox           |
|  \\    /   O peration     | Version:  2406                                  |
|   \\  /    A nd           | Website:  www.openfoam.com                      |
|    \\/     M anipulation  |                                                 |
\*---------------------------------------------------------------------------*/
FoamFile
{
    version     2.0;
    format      ascii;
    arch        "LSB;label=32;scalar=64";
    class       volVectorField;
    location    "0";
    object      U;
}
// * * * * * * * * * * * * * * * * * * * * * * * * * * * * * * * * * * * * * //

dimensions      [0 1 -1 0 0 0 0];

internalField   uniform (20 0 0);

boundaryField
{
    aerofoil
    {
        type            noSlip;
    }
    inlet
    {
        type            freestreamVelocity;
        freestreamValue nonuniform List<vector> 0();
        value           nonuniform List<vector> 0();
    }
    outlet
    {
        type            freestreamVelocity;
        freestreamValue nonuniform List<vector> 0();
        value           nonuniform List<vector> 0();
    }
    back
    {
        type            empty;
    }
    front
    {
        type            empty;
    }
    procBoundary0to1
    {
        type            processor;
        value           uniform (20 0 0);
    }
    procBoundary0to4
    {
        type            processor;
        value           uniform (20 0 0);
    }
    procBoundary0to7
    {
        type            processor;
        value           uniform (20 0 0);
    }
    procBoundary0to9
    {
        type            processor;
        value           uniform (20 0 0);
    }
}


// ************************************************************************* //
