/*--------------------------------*- C++ -*----------------------------------*\
| =========                 |                                                 |
| \\      /  F ield         | OpenFOAM: The Open Source CFD Toolbox           |
|  \\    /   O peration     | Version:  2406                                  |
|   \\  /    A nd           | Website:  www.openfoam.com                      |
|    \\/     M anipulation  |                                                 |
\*---------------------------------------------------------------------------*/
FoamFile
{
    version     2.0;
    format      ascii;
    arch        "LSB;label=32;scalar=64";
    class       volScalarField;
    location    "0.00012";
    object      alphat;
}
// * * * * * * * * * * * * * * * * * * * * * * * * * * * * * * * * * * * * * //

dimensions      [1 -1 -1 0 0 0 0];

internalField   nonuniform List<scalar> 
16000
(
1.2105489e-05
1.9150218e-05
4.6634406e-05
0.00011839686
9.0925074e-05
8.9794385e-05
0.00012503737
0.0001580348
0.00017270802
0.00019559982
0.00019709553
0.00016548896
0.00017266057
0.00019380007
0.00025336168
0.00045873147
0.0010591964
0.0011663042
0.0011663042
0.0011663048
0.0011663052
0.0011663052
0.0011663053
0.0011663053
0.0011663055
0.0011663059
0.0011663062
0.0011663066
0.001166307
0.0011663073
0.0011663076
0.0011663078
0.001166308
0.0011663081
0.0011663082
0.0011663083
0.0011663083
0.0011663084
0.0011663084
0.0011663085
0.0011663085
0.0011663085
0.0011663085
0.0011663085
0.0011663086
0.0011663086
0.0011663086
0.0011663086
0.0011663086
0.0011663086
0.0011663086
0.0011663086
0.0011663086
0.0011663086
0.0011663086
0.0011663086
0.0011663086
0.0011663086
0.0011663086
0.0011663086
0.0011663086
0.0011663086
0.0011663086
0.0011663086
0.0011663086
0.0011663086
0.0011663086
0.0011663086
0.0011663086
0.0011663086
0.0011663086
0.0011663086
0.0011663086
0.0011663086
0.0011663086
0.0011663086
0.0011663086
0.0011663086
0.0011663086
0.0011663086
1.1753233e-05
4.9085252e-05
5.4283829e-05
0.00018457304
0.00010063162
0.00016215351
0.00012943222
0.00017799416
0.00014710967
0.0001857754
0.00016157478
0.00014499994
0.0001438585
0.00010688043
0.00010020643
0.00015141269
0.00030751006
0.0011614398
0.0011663052
0.0011663043
0.0011663049
0.0011663052
0.0011663052
0.0011663053
0.0011663055
0.0011663058
0.0011663061
0.0011663065
0.0011663069
0.0011663072
0.0011663075
0.0011663077
0.0011663079
0.0011663081
0.0011663082
0.0011663083
0.0011663083
0.0011663084
0.0011663084
0.0011663085
0.0011663085
0.0011663085
0.0011663085
0.0011663085
0.0011663086
0.0011663086
0.0011663086
0.0011663086
0.0011663086
0.0011663086
0.0011663086
0.0011663086
0.0011663086
0.0011663086
0.0011663086
0.0011663086
0.0011663086
0.0011663086
0.0011663086
0.0011663086
0.0011663086
0.0011663086
0.0011663086
0.0011663086
0.0011663086
0.0011663086
0.0011663086
0.0011663086
0.0011663086
0.0011663086
0.0011663086
0.0011663086
0.0011663086
0.0011663086
0.0011663086
0.0011663086
0.0011663086
0.0011663086
0.0011663086
0.0011663086
1.1441713e-05
0.00037328809
0.0001879226
0.00010315768
7.1047198e-05
0.00024791557
0.00016102768
0.00021864628
0.00013184493
0.00017663635
0.0001299334
0.00012489808
0.00012756146
7.1114753e-05
5.9604933e-05
8.2573019e-05
0.00015521452
0.0004865479
0.0011663079
0.0011663039
0.0011663046
0.0011663051
0.0011663052
0.0011663053
0.0011663054
0.0011663057
0.001166306
0.0011663064
0.0011663068
0.0011663072
0.0011663074
0.0011663077
0.0011663079
0.001166308
0.0011663081
0.0011663082
0.0011663083
0.0011663084
0.0011663084
0.0011663085
0.0011663085
0.0011663085
0.0011663085
0.0011663085
0.0011663086
0.0011663086
0.0011663086
0.0011663086
0.0011663086
0.0011663086
0.0011663086
0.0011663086
0.0011663086
0.0011663086
0.0011663086
0.0011663086
0.0011663086
0.0011663086
0.0011663086
0.0011663086
0.0011663086
0.0011663086
0.0011663086
0.0011663086
0.0011663086
0.0011663086
0.0011663086
0.0011663086
0.0011663086
0.0011663086
0.0011663086
0.0011663086
0.0011663086
0.0011663086
0.0011663086
0.0011663086
0.0011663086
0.0011663086
0.0011663086
0.0011663087
8.4340034e-06
3.2917617e-05
4.8738021e-05
5.9482827e-05
6.294188e-05
0.00029426528
0.0001073673
0.00015036255
0.00012758247
0.00014378293
0.00010956656
0.00010547321
0.00012236982
5.466638e-05
4.1758348e-05
5.3596933e-05
9.4907162e-05
0.00026382227
0.0011663131
0.0011663033
0.0011663041
0.001166305
0.0011663052
0.0011663053
0.0011663054
0.0011663056
0.001166306
0.0011663064
0.0011663067
0.0011663071
0.0011663074
0.0011663076
0.0011663078
0.001166308
0.0011663081
0.0011663082
0.0011663083
0.0011663084
0.0011663084
0.0011663084
0.0011663085
0.0011663085
0.0011663085
0.0011663085
0.0011663085
0.0011663086
0.0011663086
0.0011663086
0.0011663086
0.0011663086
0.0011663086
0.0011663086
0.0011663086
0.0011663086
0.0011663086
0.0011663086
0.0011663086
0.0011663086
0.0011663086
0.0011663086
0.0011663086
0.0011663086
0.0011663086
0.0011663086
0.0011663086
0.0011663086
0.0011663086
0.0011663086
0.0011663086
0.0011663086
0.0011663086
0.0011663086
0.0011663086
0.0011663086
0.0011663086
0.0011663086
0.0011663086
0.0011663086
0.0011663086
0.0011663087
1.0366815e-05
1.6160602e-05
2.1206339e-05
4.1977496e-05
5.0004811e-05
0.00031868602
7.2680636e-05
9.0402019e-05
0.00014166945
0.00010634664
9.4709811e-05
8.6946309e-05
0.00011641296
4.5407789e-05
3.2027173e-05
3.8385017e-05
6.435745e-05
0.0001629145
0.00090833763
0.0011663029
0.0011663036
0.0011663048
0.0011663052
0.0011663053
0.0011663054
0.0011663056
0.0011663059
0.0011663063
0.0011663067
0.001166307
0.0011663073
0.0011663076
0.0011663078
0.001166308
0.0011663081
0.0011663082
0.0011663083
0.0011663083
0.0011663084
0.0011663084
0.0011663085
0.0011663085
0.0011663085
0.0011663085
0.0011663085
0.0011663086
0.0011663086
0.0011663086
0.0011663086
0.0011663086
0.0011663086
0.0011663086
0.0011663086
0.0011663086
0.0011663086
0.0011663086
0.0011663086
0.0011663086
0.0011663086
0.0011663086
0.0011663086
0.0011663086
0.0011663086
0.0011663086
0.0011663086
0.0011663086
0.0011663086
0.0011663086
0.0011663086
0.0011663086
0.0011663086
0.0011663086
0.0011663086
0.0011663086
0.0011663086
0.0011663086
0.0011663086
0.0011663086
0.0011663086
0.0011663088
1.0487935e-05
9.6279674e-06
1.1436295e-05
3.3473716e-05
4.3691967e-05
0.00016179245
4.8632487e-05
6.2890065e-05
0.00013961465
8.0199433e-05
8.7301257e-05
7.2743625e-05
0.00010051584
3.9877293e-05
2.598494e-05
2.9259343e-05
4.6585453e-05
0.00011206992
0.00055012892
0.0011663028
0.001166303
0.0011663045
0.0011663052
0.0011663053
0.0011663054
0.0011663056
0.0011663059
0.0011663062
0.0011663066
0.001166307
0.0011663073
0.0011663076
0.0011663078
0.0011663079
0.0011663081
0.0011663082
0.0011663083
0.0011663083
0.0011663084
0.0011663084
0.0011663085
0.0011663085
0.0011663085
0.0011663085
0.0011663085
0.0011663086
0.0011663086
0.0011663086
0.0011663086
0.0011663086
0.0011663086
0.0011663086
0.0011663086
0.0011663086
0.0011663086
0.0011663086
0.0011663086
0.0011663086
0.0011663086
0.0011663086
0.0011663086
0.0011663086
0.0011663086
0.0011663086
0.0011663086
0.0011663086
0.0011663086
0.0011663086
0.0011663086
0.0011663086
0.0011663086
0.0011663086
0.0011663086
0.0011663086
0.0011663086
0.0011663086
0.0011663086
0.0011663086
0.0011663086
0.0011663088
6.5112737e-06
6.4450196e-06
8.3023406e-06
5.474149e-05
3.7660671e-05
5.7594196e-05
3.4961046e-05
4.6714478e-05
9.5450532e-05
5.992483e-05
8.5151572e-05
6.2121624e-05
7.9504667e-05
3.633751e-05
2.1913499e-05
2.3295559e-05
3.5319658e-05
8.1096554e-05
0.00035655036
0.0011663034
0.0011663023
0.0011663042
0.0011663051
0.0011663053
0.0011663053
0.0011663055
0.0011663058
0.0011663061
0.0011663065
0.0011663069
0.0011663072
0.0011663075
0.0011663077
0.0011663079
0.001166308
0.0011663082
0.0011663083
0.0011663083
0.0011663084
0.0011663084
0.0011663085
0.0011663085
0.0011663085
0.0011663085
0.0011663085
0.0011663086
0.0011663086
0.0011663086
0.0011663086
0.0011663086
0.0011663086
0.0011663086
0.0011663086
0.0011663086
0.0011663086
0.0011663086
0.0011663086
0.0011663086
0.0011663086
0.0011663086
0.0011663086
0.0011663086
0.0011663086
0.0011663086
0.0011663086
0.0011663086
0.0011663086
0.0011663086
0.0011663086
0.0011663086
0.0011663086
0.0011663086
0.0011663086
0.0011663086
0.0011663086
0.0011663086
0.0011663086
0.0011663086
0.0011663086
0.0011663088
4.6451456e-06
4.5052775e-06
4.7849229e-06
5.6417139e-05
3.1260443e-05
5.168133e-05
2.7626909e-05
3.5758766e-05
5.1634587e-05
4.3796747e-05
8.8030609e-05
5.3312322e-05
6.2091378e-05
3.3984829e-05
1.8979237e-05
1.9165011e-05
2.7729523e-05
6.0980046e-05
0.00024342907
0.001166305
0.0011663015
0.0011663038
0.0011663051
0.0011663052
0.0011663053
0.0011663055
0.0011663057
0.0011663061
0.0011663065
0.0011663068
0.0011663072
0.0011663075
0.0011663077
0.0011663079
0.001166308
0.0011663081
0.0011663082
0.0011663083
0.0011663084
0.0011663084
0.0011663085
0.0011663085
0.0011663085
0.0011663085
0.0011663085
0.0011663086
0.0011663086
0.0011663086
0.0011663086
0.0011663086
0.0011663086
0.0011663086
0.0011663086
0.0011663086
0.0011663086
0.0011663086
0.0011663086
0.0011663086
0.0011663086
0.0011663086
0.0011663086
0.0011663086
0.0011663086
0.0011663086
0.0011663086
0.0011663086
0.0011663086
0.0011663086
0.0011663086
0.0011663086
0.0011663086
0.0011663086
0.0011663086
0.0011663086
0.0011663086
0.0011663086
0.0011663086
0.0011663086
0.0011663086
0.0011663089
3.4219639e-06
3.1653165e-06
3.3845099e-06
3.3445522e-05
2.376817e-05
4.7184561e-05
2.2913484e-05
3.0550825e-05
3.3817631e-05
3.0180899e-05
8.733051e-05
4.4873673e-05
4.8545511e-05
3.2240717e-05
1.6747752e-05
1.6127722e-05
2.2362044e-05
4.7234799e-05
0.00017320678
0.0011663079
0.0011663007
0.0011663033
0.001166305
0.0011663052
0.0011663053
0.0011663054
0.0011663057
0.001166306
0.0011663064
0.0011663068
0.0011663071
0.0011663074
0.0011663077
0.0011663079
0.001166308
0.0011663081
0.0011663082
0.0011663083
0.0011663084
0.0011663084
0.0011663085
0.0011663085
0.0011663085
0.0011663085
0.0011663085
0.0011663085
0.0011663086
0.0011663086
0.0011663086
0.0011663086
0.0011663086
0.0011663086
0.0011663086
0.0011663086
0.0011663086
0.0011663086
0.0011663086
0.0011663086
0.0011663086
0.0011663086
0.0011663086
0.0011663086
0.0011663086
0.0011663086
0.0011663086
0.0011663086
0.0011663086
0.0011663086
0.0011663086
0.0011663086
0.0011663086
0.0011663086
0.0011663086
0.0011663086
0.0011663086
0.0011663086
0.0011663086
0.0011663086
0.0011663086
0.0011663089
2.3371227e-06
2.3361783e-06
2.474274e-06
1.8642216e-05
1.7318921e-05
5.7525135e-05
1.9027589e-05
2.8101604e-05
2.4553342e-05
2.1976533e-05
8.1650024e-05
3.7924664e-05
3.8955232e-05
3.0502166e-05
1.504306e-05
1.3804122e-05
1.8420077e-05
3.7471766e-05
0.00012741024
0.00084838507
0.0011662999
0.0011663027
0.0011663048
0.0011663052
0.0011663053
0.0011663054
0.0011663057
0.001166306
0.0011663064
0.0011663068
0.0011663071
0.0011663074
0.0011663076
0.0011663078
0.001166308
0.0011663081
0.0011663082
0.0011663083
0.0011663084
0.0011663084
0.0011663084
0.0011663085
0.0011663085
0.0011663085
0.0011663085
0.0011663085
0.0011663086
0.0011663086
0.0011663086
0.0011663086
0.0011663086
0.0011663086
0.0011663086
0.0011663086
0.0011663086
0.0011663086
0.0011663086
0.0011663086
0.0011663086
0.0011663086
0.0011663086
0.0011663086
0.0011663086
0.0011663086
0.0011663086
0.0011663086
0.0011663086
0.0011663086
0.0011663086
0.0011663086
0.0011663086
0.0011663086
0.0011663086
0.0011663086
0.0011663086
0.0011663086
0.0011663086
0.0011663086
0.0011663086
0.001166309
1.5501991e-06
1.7253711e-06
1.8290098e-06
1.0405353e-05
1.2412054e-05
2.4062503e-05
1.5234726e-05
2.8447471e-05
1.8849327e-05
1.6982831e-05
7.2875551e-05
3.3959714e-05
3.1097731e-05
2.9416723e-05
1.3612545e-05
1.1957068e-05
1.5423213e-05
3.0309238e-05
9.6281615e-05
0.0005987344
0.001166299
0.0011663021
0.0011663047
0.0011663052
0.0011663053
0.0011663054
0.0011663056
0.001166306
0.0011663063
0.0011663067
0.0011663071
0.0011663074
0.0011663076
0.0011663078
0.001166308
0.0011663081
0.0011663082
0.0011663083
0.0011663084
0.0011663084
0.0011663084
0.0011663085
0.0011663085
0.0011663085
0.0011663085
0.0011663085
0.0011663086
0.0011663086
0.0011663086
0.0011663086
0.0011663086
0.0011663086
0.0011663086
0.0011663086
0.0011663086
0.0011663086
0.0011663086
0.0011663086
0.0011663086
0.0011663086
0.0011663086
0.0011663086
0.0011663086
0.0011663086
0.0011663086
0.0011663086
0.0011663086
0.0011663086
0.0011663086
0.0011663086
0.0011663086
0.0011663086
0.0011663086
0.0011663086
0.0011663086
0.0011663086
0.0011663086
0.0011663086
0.0011663086
0.001166309
1.1152747e-06
1.2925937e-06
1.3502602e-06
7.1740179e-06
9.0480765e-06
1.4621589e-05
1.1666887e-05
3.0495598e-05
1.4816251e-05
1.3609067e-05
6.3462239e-05
3.269204e-05
2.5045399e-05
2.8937658e-05
1.2420745e-05
1.0454647e-05
1.3077791e-05
2.4895777e-05
7.437274e-05
0.00043618458
0.0011662982
0.0011663013
0.0011663045
0.0011663052
0.0011663053
0.0011663054
0.0011663056
0.0011663059
0.0011663063
0.0011663067
0.001166307
0.0011663073
0.0011663076
0.0011663078
0.001166308
0.0011663081
0.0011663082
0.0011663083
0.0011663083
0.0011663084
0.0011663084
0.0011663085
0.0011663085
0.0011663085
0.0011663085
0.0011663085
0.0011663086
0.0011663086
0.0011663086
0.0011663086
0.0011663086
0.0011663086
0.0011663086
0.0011663086
0.0011663086
0.0011663086
0.0011663086
0.0011663086
0.0011663086
0.0011663086
0.0011663086
0.0011663086
0.0011663086
0.0011663086
0.0011663086
0.0011663086
0.0011663086
0.0011663086
0.0011663086
0.0011663086
0.0011663086
0.0011663086
0.0011663086
0.0011663086
0.0011663086
0.0011663086
0.0011663086
0.0011663086
0.0011663086
0.0011663091
8.5303888e-07
9.8012204e-07
1.0022464e-06
5.7224274e-06
6.7380031e-06
1.128561e-05
8.9457293e-06
3.0402896e-05
1.1953628e-05
1.1245719e-05
5.4118006e-05
3.4197289e-05
2.0626898e-05
2.9180391e-05
1.1427318e-05
9.2092706e-06
1.1207064e-05
2.0705281e-05
5.8477892e-05
0.00032598454
0.0011662974
0.0011663005
0.0011663043
0.0011663052
0.0011663053
0.0011663054
0.0011663056
0.0011663059
0.0011663063
0.0011663066
0.001166307
0.0011663073
0.0011663076
0.0011663078
0.001166308
0.0011663081
0.0011663082
0.0011663083
0.0011663083
0.0011663084
0.0011663084
0.0011663085
0.0011663085
0.0011663085
0.0011663085
0.0011663085
0.0011663086
0.0011663086
0.0011663086
0.0011663086
0.0011663086
0.0011663086
0.0011663086
0.0011663086
0.0011663086
0.0011663086
0.0011663086
0.0011663086
0.0011663086
0.0011663086
0.0011663086
0.0011663086
0.0011663086
0.0011663086
0.0011663086
0.0011663086
0.0011663086
0.0011663086
0.0011663086
0.0011663086
0.0011663086
0.0011663086
0.0011663086
0.0011663086
0.0011663086
0.0011663086
0.0011663086
0.0011663086
0.0011663086
0.0011663091
6.1989683e-07
7.2670596e-07
7.463172e-07
4.5495878e-06
5.0292687e-06
8.5626184e-06
6.9891483e-06
2.6488e-05
9.8540364e-06
1.0220055e-05
4.529126e-05
3.5620789e-05
1.7420477e-05
2.9885038e-05
1.0597757e-05
8.1649216e-06
9.6892865e-06
1.7398531e-05
4.665946e-05
0.00024876089
0.0011662969
0.0011662996
0.001166304
0.0011663051
0.0011663053
0.0011663054
0.0011663056
0.0011663059
0.0011663062
0.0011663066
0.001166307
0.0011663073
0.0011663075
0.0011663078
0.0011663079
0.0011663081
0.0011663082
0.0011663083
0.0011663083
0.0011663084
0.0011663084
0.0011663085
0.0011663085
0.0011663085
0.0011663085
0.0011663085
0.0011663086
0.0011663086
0.0011663086
0.0011663086
0.0011663086
0.0011663086
0.0011663086
0.0011663086
0.0011663086
0.0011663086
0.0011663086
0.0011663086
0.0011663086
0.0011663086
0.0011663086
0.0011663086
0.0011663086
0.0011663086
0.0011663086
0.0011663086
0.0011663086
0.0011663086
0.0011663086
0.0011663086
0.0011663086
0.0011663086
0.0011663086
0.0011663086
0.0011663086
0.0011663086
0.0011663086
0.0011663086
0.0011663086
0.0011663092
4.3068935e-07
5.3052929e-07
5.4797178e-07
3.2705643e-06
3.6959649e-06
6.4837535e-06
5.4963973e-06
2.158783e-05
8.2511197e-06
9.1181335e-06
3.7406814e-05
3.7076831e-05
1.5116853e-05
3.0064561e-05
9.8897782e-06
7.2827912e-06
8.4393772e-06
1.4749116e-05
3.7704996e-05
0.00019324551
0.0011662965
0.0011662986
0.0011663036
0.0011663051
0.0011663053
0.0011663054
0.0011663055
0.0011663058
0.0011663062
0.0011663066
0.0011663069
0.0011663073
0.0011663075
0.0011663078
0.0011663079
0.0011663081
0.0011663082
0.0011663083
0.0011663083
0.0011663084
0.0011663084
0.0011663085
0.0011663085
0.0011663085
0.0011663085
0.0011663085
0.0011663086
0.0011663086
0.0011663086
0.0011663086
0.0011663086
0.0011663086
0.0011663086
0.0011663086
0.0011663086
0.0011663086
0.0011663086
0.0011663086
0.0011663086
0.0011663086
0.0011663086
0.0011663086
0.0011663086
0.0011663086
0.0011663086
0.0011663086
0.0011663086
0.0011663086
0.0011663086
0.0011663086
0.0011663086
0.0011663086
0.0011663086
0.0011663086
0.0011663086
0.0011663086
0.0011663086
0.0011663086
0.0011663086
0.0011663093
3.0591839e-07
3.833473e-07
3.9238438e-07
2.734303e-06
2.668356e-06
5.1602074e-06
4.3522529e-06
1.7276406e-05
6.9844604e-06
8.1028405e-06
3.1040686e-05
3.7191917e-05
1.3374371e-05
2.8954911e-05
9.2361095e-06
6.519397e-06
7.3925767e-06
1.2597903e-05
3.0828307e-05
0.00015261848
0.0011662965
0.0011662975
0.0011663032
0.0011663051
0.0011663053
0.0011663053
0.0011663055
0.0011663058
0.0011663062
0.0011663066
0.0011663069
0.0011663073
0.0011663075
0.0011663078
0.0011663079
0.0011663081
0.0011663082
0.0011663083
0.0011663083
0.0011663084
0.0011663084
0.0011663085
0.0011663085
0.0011663085
0.0011663085
0.0011663085
0.0011663086
0.0011663086
0.0011663086
0.0011663086
0.0011663086
0.0011663086
0.0011663086
0.0011663086
0.0011663086
0.0011663086
0.0011663086
0.0011663086
0.0011663086
0.0011663086
0.0011663086
0.0011663086
0.0011663086
0.0011663086
0.0011663086
0.0011663086
0.0011663086
0.0011663086
0.0011663086
0.0011663086
0.0011663086
0.0011663086
0.0011663086
0.0011663086
0.0011663086
0.0011663086
0.0011663086
0.0011663086
0.0011663086
0.0011663093
2.1648707e-07
2.8155292e-07
2.7373501e-07
2.5637961e-06
1.9146933e-06
4.1346082e-06
3.4823772e-06
1.2892581e-05
6.0176857e-06
7.0590648e-06
2.6061764e-05
3.4471022e-05
1.1917492e-05
2.6814533e-05
8.6031234e-06
5.8407658e-06
6.5010289e-06
1.0829968e-05
2.5545653e-05
0.00012259087
0.0011662967
0.0011662963
0.0011663028
0.001166305
0.0011663053
0.0011663053
0.0011663055
0.0011663058
0.0011663062
0.0011663066
0.0011663069
0.0011663073
0.0011663075
0.0011663078
0.0011663079
0.0011663081
0.0011663082
0.0011663083
0.0011663083
0.0011663084
0.0011663084
0.0011663085
0.0011663085
0.0011663085
0.0011663085
0.0011663085
0.0011663086
0.0011663086
0.0011663086
0.0011663086
0.0011663086
0.0011663086
0.0011663086
0.0011663086
0.0011663086
0.0011663086
0.0011663086
0.0011663086
0.0011663086
0.0011663086
0.0011663086
0.0011663086
0.0011663086
0.0011663086
0.0011663086
0.0011663086
0.0011663086
0.0011663086
0.0011663086
0.0011663086
0.0011663086
0.0011663086
0.0011663086
0.0011663086
0.0011663086
0.0011663086
0.0011663086
0.0011663086
0.0011663086
0.0011663094
1.5156487e-07
2.0358932e-07
1.8443966e-07
4.3132885e-06
1.4013525e-06
3.6756947e-06
2.8206421e-06
1.160182e-05
5.240093e-06
6.3197322e-06
2.2079957e-05
2.7936926e-05
1.0613445e-05
2.442842e-05
8.0260512e-06
5.2423095e-06
5.741692e-06
9.3765255e-06
2.1459489e-05
0.00010037722
0.0011662973
0.001166295
0.0011663023
0.0011663049
0.0011663053
0.0011663053
0.0011663055
0.0011663058
0.0011663062
0.0011663065
0.0011663069
0.0011663072
0.0011663075
0.0011663077
0.0011663079
0.0011663081
0.0011663082
0.0011663083
0.0011663083
0.0011663084
0.0011663084
0.0011663085
0.0011663085
0.0011663085
0.0011663085
0.0011663085
0.0011663086
0.0011663086
0.0011663086
0.0011663086
0.0011663086
0.0011663086
0.0011663086
0.0011663086
0.0011663086
0.0011663086
0.0011663086
0.0011663086
0.0011663086
0.0011663086
0.0011663086
0.0011663086
0.0011663086
0.0011663086
0.0011663086
0.0011663086
0.0011663086
0.0011663086
0.0011663086
0.0011663086
0.0011663086
0.0011663086
0.0011663086
0.0011663086
0.0011663086
0.0011663086
0.0011663086
0.0011663086
0.0011663086
0.0011663095
8.0896054e-08
1.4912759e-07
1.1027105e-07
3.4514365e-06
9.9243929e-07
2.5325693e-06
2.3098895e-06
7.5875125e-06
4.7602905e-06
5.6345527e-06
1.9214133e-05
2.0818015e-05
9.5327528e-06
2.2149187e-05
7.5452869e-06
4.7415467e-06
5.1161824e-06
8.2129819e-06
1.8499296e-05
8.4198245e-05
0.00097433628
0.0011662936
0.0011663018
0.0011663049
0.0011663053
0.0011663053
0.0011663055
0.0011663058
0.0011663061
0.0011663065
0.0011663069
0.0011663072
0.0011663075
0.0011663077
0.0011663079
0.0011663081
0.0011663082
0.0011663083
0.0011663083
0.0011663084
0.0011663084
0.0011663085
0.0011663085
0.0011663085
0.0011663085
0.0011663085
0.0011663086
0.0011663086
0.0011663086
0.0011663086
0.0011663086
0.0011663086
0.0011663086
0.0011663086
0.0011663086
0.0011663086
0.0011663086
0.0011663086
0.0011663086
0.0011663086
0.0011663086
0.0011663086
0.0011663086
0.0011663086
0.0011663086
0.0011663086
0.0011663086
0.0011663086
0.0011663086
0.0011663086
0.0011663086
0.0011663086
0.0011663086
0.0011663086
0.0011663086
0.0011663086
0.0011663086
0.0011663086
0.0011663086
0.0011663096
4.8245994e-08
1.166182e-07
6.0168049e-08
1.2738631e-06
6.3802881e-07
1.3744261e-06
1.8393817e-06
7.8996387e-06
4.3836934e-06
5.7801116e-06
1.7342485e-05
1.5970236e-05
8.7377207e-06
2.0307613e-05
7.6513482e-06
4.3484318e-06
4.6307526e-06
7.332938e-06
1.6364797e-05
7.3006825e-05
0.0008128765
0.0011662923
0.0011663013
0.0011663048
0.0011663053
0.0011663054
0.0011663055
0.0011663058
0.0011663061
0.0011663065
0.0011663069
0.0011663072
0.0011663075
0.0011663077
0.0011663079
0.0011663081
0.0011663082
0.0011663083
0.0011663083
0.0011663084
0.0011663084
0.0011663085
0.0011663085
0.0011663085
0.0011663085
0.0011663085
0.0011663086
0.0011663086
0.0011663086
0.0011663086
0.0011663086
0.0011663086
0.0011663086
0.0011663086
0.0011663086
0.0011663086
0.0011663086
0.0011663086
0.0011663086
0.0011663086
0.0011663086
0.0011663086
0.0011663086
0.0011663086
0.0011663086
0.0011663086
0.0011663086
0.0011663086
0.0011663086
0.0011663086
0.0011663086
0.0011663086
0.0011663086
0.0011663086
0.0011663086
0.0011663086
0.0011663086
0.0011663086
0.0011663086
0.0011663097
1.5311731e-07
6.7206296e-08
1.9077045e-07
8.0532381e-07
4.8004638e-07
1.086975e-06
1.4126851e-06
1.8281893e-05
3.8085797e-06
6.297501e-06
1.6398729e-05
1.3132326e-05
8.3242873e-06
1.9195422e-05
7.0780135e-06
4.0586125e-06
4.2753947e-06
6.726055e-06
1.4948219e-05
6.621853e-05
0.0007285058
0.0011662912
0.0011663009
0.0011663048
0.0011663053
0.0011663054
0.0011663055
0.0011663058
0.0011663062
0.0011663066
0.0011663069
0.0011663073
0.0011663075
0.0011663078
0.0011663079
0.0011663081
0.0011663082
0.0011663083
0.0011663083
0.0011663084
0.0011663084
0.0011663085
0.0011663085
0.0011663085
0.0011663085
0.0011663085
0.0011663086
0.0011663086
0.0011663086
0.0011663086
0.0011663086
0.0011663086
0.0011663086
0.0011663086
0.0011663086
0.0011663086
0.0011663086
0.0011663086
0.0011663086
0.0011663086
0.0011663086
0.0011663086
0.0011663086
0.0011663086
0.0011663086
0.0011663086
0.0011663086
0.0011663086
0.0011663086
0.0011663086
0.0011663086
0.0011663086
0.0011663086
0.0011663086
0.0011663086
0.0011663086
0.0011663086
0.0011663086
0.0011663086
0.0011663098
2.659469e-07
2.541258e-08
5.6497579e-08
3.3149331e-07
3.5920347e-07
8.7924648e-07
1.1157576e-06
5.5234943e-06
3.3024858e-06
6.0017938e-06
1.5262648e-05
1.1712466e-05
1.0268732e-05
2.2380251e-05
6.3803499e-06
3.8490928e-06
4.0314746e-06
6.3651657e-06
1.4205626e-05
6.3675197e-05
0.00071643396
0.0011662904
0.0011663008
0.0011663048
0.0011663053
0.0011663054
0.0011663055
0.0011663059
0.0011663062
0.0011663066
0.001166307
0.0011663073
0.0011663076
0.0011663078
0.0011663079
0.0011663081
0.0011663082
0.0011663083
0.0011663083
0.0011663084
0.0011663084
0.0011663085
0.0011663085
0.0011663085
0.0011663085
0.0011663085
0.0011663086
0.0011663086
0.0011663086
0.0011663086
0.0011663086
0.0011663086
0.0011663086
0.0011663086
0.0011663086
0.0011663086
0.0011663086
0.0011663086
0.0011663086
0.0011663086
0.0011663086
0.0011663086
0.0011663086
0.0011663086
0.0011663086
0.0011663086
0.0011663086
0.0011663086
0.0011663086
0.0011663086
0.0011663086
0.0011663086
0.0011663086
0.0011663086
0.0011663086
0.0011663086
0.0011663086
0.0011663086
0.0011663086
0.0011663099
1.3650735e-07
1.5862266e-08
2.4861912e-08
2.6592267e-07
3.8049224e-07
9.9173625e-07
8.85722e-07
3.6775444e-06
3.7855977e-06
3.3655109e-06
1.2979664e-05
1.0764111e-05
1.0524777e-05
2.1559513e-05
6.051177e-06
3.6660959e-06
3.8800844e-06
6.232423e-06
1.4126342e-05
6.5626113e-05
0.00079066037
0.0011662902
0.0011663009
0.0011663048
0.0011663053
0.0011663054
0.0011663056
0.0011663059
0.0011663063
0.0011663067
0.001166307
0.0011663073
0.0011663076
0.0011663078
0.001166308
0.0011663081
0.0011663082
0.0011663083
0.0011663084
0.0011663084
0.0011663084
0.0011663085
0.0011663085
0.0011663085
0.0011663085
0.0011663085
0.0011663086
0.0011663086
0.0011663086
0.0011663086
0.0011663086
0.0011663086
0.0011663086
0.0011663086
0.0011663086
0.0011663086
0.0011663086
0.0011663086
0.0011663086
0.0011663086
0.0011663086
0.0011663086
0.0011663086
0.0011663086
0.0011663086
0.0011663086
0.0011663086
0.0011663086
0.0011663086
0.0011663086
0.0011663086
0.0011663086
0.0011663086
0.0011663086
0.0011663086
0.0011663086
0.0011663086
0.0011663086
0.0011663086
0.00116631
1.1583261e-07
6.6149565e-09
1.8672261e-08
2.1563623e-07
4.1679949e-07
8.7589224e-07
1.1817237e-06
2.5469603e-06
4.1032921e-06
2.6039307e-06
9.1755158e-06
1.0298195e-05
7.5450297e-06
1.5721571e-05
5.762848e-06
3.5096737e-06
3.8184079e-06
6.3221252e-06
1.4976898e-05
7.2812094e-05
0.00099976129
0.0011662906
0.0011663013
0.0011663049
0.0011663053
0.0011663054
0.0011663056
0.0011663059
0.0011663063
0.0011663067
0.001166307
0.0011663074
0.0011663076
0.0011663078
0.001166308
0.0011663081
0.0011663082
0.0011663083
0.0011663084
0.0011663084
0.0011663084
0.0011663085
0.0011663085
0.0011663085
0.0011663085
0.0011663085
0.0011663086
0.0011663086
0.0011663086
0.0011663086
0.0011663086
0.0011663086
0.0011663086
0.0011663086
0.0011663086
0.0011663086
0.0011663086
0.0011663086
0.0011663086
0.0011663086
0.0011663086
0.0011663086
0.0011663086
0.0011663086
0.0011663086
0.0011663086
0.0011663086
0.0011663086
0.0011663086
0.0011663086
0.0011663086
0.0011663086
0.0011663086
0.0011663086
0.0011663086
0.0011663086
0.0011663086
0.0011663086
0.0011663086
0.0011663101
5.4064086e-08
1.0671717e-08
1.2650737e-08
2.9615748e-07
3.6036372e-07
5.1888912e-07
1.0828428e-06
1.3748045e-06
3.6282218e-06
2.5200284e-06
6.9753077e-06
1.0341144e-05
6.8948135e-06
1.3833114e-05
5.3816453e-06
3.4046573e-06
3.8501228e-06
6.6306142e-06
1.6867421e-05
8.6520413e-05
0.001166288
0.0011662915
0.0011663019
0.001166305
0.0011663053
0.0011663054
0.0011663056
0.0011663059
0.0011663064
0.0011663067
0.0011663071
0.0011663074
0.0011663076
0.0011663078
0.001166308
0.0011663081
0.0011663082
0.0011663083
0.0011663084
0.0011663084
0.0011663084
0.0011663085
0.0011663085
0.0011663085
0.0011663085
0.0011663085
0.0011663086
0.0011663086
0.0011663086
0.0011663086
0.0011663086
0.0011663086
0.0011663086
0.0011663086
0.0011663086
0.0011663086
0.0011663086
0.0011663086
0.0011663086
0.0011663086
0.0011663086
0.0011663086
0.0011663086
0.0011663086
0.0011663086
0.0011663086
0.0011663086
0.0011663086
0.0011663086
0.0011663086
0.0011663086
0.0011663086
0.0011663086
0.0011663086
0.0011663086
0.0011663086
0.0011663086
0.0011663086
0.0011663086
0.0011663102
2.9746132e-08
1.1107551e-08
1.441391e-08
0.00084457919
2.4726834e-07
1.21633e-06
1.3116422e-06
1.4091311e-06
2.2140065e-06
3.2040635e-06
5.6694961e-06
1.1696536e-05
6.4541209e-06
1.2079435e-05
5.1038594e-06
3.3436004e-06
3.956095e-06
7.1303593e-06
1.9718473e-05
0.0001081787
0.001166286
0.0011662928
0.0011663026
0.0011663051
0.0011663053
0.0011663054
0.0011663057
0.001166306
0.0011663064
0.0011663068
0.0011663071
0.0011663074
0.0011663076
0.0011663078
0.001166308
0.0011663081
0.0011663082
0.0011663083
0.0011663084
0.0011663084
0.0011663084
0.0011663085
0.0011663085
0.0011663085
0.0011663085
0.0011663085
0.0011663086
0.0011663086
0.0011663086
0.0011663086
0.0011663086
0.0011663086
0.0011663086
0.0011663086
0.0011663086
0.0011663086
0.0011663086
0.0011663086
0.0011663086
0.0011663086
0.0011663086
0.0011663086
0.0011663086
0.0011663086
0.0011663086
0.0011663086
0.0011663086
0.0011663086
0.0011663086
0.0011663086
0.0011663086
0.0011663086
0.0011663086
0.0011663086
0.0011663086
0.0011663086
0.0011663086
0.0011663086
0.0011663086
0.0011663102
4.0237348e-08
1.1332699e-09
1.4356222e-08
1.5299861e-07
3.0876139e-07
0.001302717
6.1793711e-07
6.3197686e-06
1.8490686e-06
4.0591759e-06
6.3406947e-06
1.3827565e-05
6.3359222e-06
1.0597035e-05
4.5798459e-06
3.3185366e-06
4.1009599e-06
7.7249941e-06
2.316359e-05
0.00013645919
0.0011662854
0.0011662942
0.0011663031
0.0011663052
0.0011663053
0.0011663054
0.0011663057
0.001166306
0.0011663064
0.0011663068
0.0011663071
0.0011663074
0.0011663077
0.0011663079
0.001166308
0.0011663081
0.0011663082
0.0011663083
0.0011663084
0.0011663084
0.0011663084
0.0011663085
0.0011663085
0.0011663085
0.0011663085
0.0011663085
0.0011663086
0.0011663086
0.0011663086
0.0011663086
0.0011663086
0.0011663086
0.0011663086
0.0011663086
0.0011663086
0.0011663086
0.0011663086
0.0011663086
0.0011663086
0.0011663086
0.0011663086
0.0011663086
0.0011663086
0.0011663086
0.0011663086
0.0011663086
0.0011663086
0.0011663086
0.0011663086
0.0011663086
0.0011663086
0.0011663086
0.0011663086
0.0011663086
0.0011663086
0.0011663086
0.0011663086
0.0011663086
0.0011663086
0.0011663103
2.6164453e-08
4.6878032e-09
1.2723333e-08
4.2024084e-07
3.3457742e-07
1.1230431e-06
5.2145787e-07
3.8786854e-05
1.5034234e-06
3.3918376e-06
7.8129279e-06
1.4246411e-05
7.8890773e-06
9.7329009e-06
4.2924001e-06
3.3214338e-06
4.2140845e-06
8.2058518e-06
2.5973352e-05
0.00016109524
0.0011662856
0.0011662952
0.0011663035
0.0011663052
0.0011663053
0.0011663055
0.0011663057
0.001166306
0.0011663064
0.0011663068
0.0011663071
0.0011663074
0.0011663077
0.0011663078
0.001166308
0.0011663081
0.0011663082
0.0011663083
0.0011663084
0.0011663084
0.0011663084
0.0011663085
0.0011663085
0.0011663085