/*--------------------------------*- C++ -*----------------------------------*\
| =========                 |                                                 |
| \\      /  F ield         | OpenFOAM: The Open Source CFD Toolbox           |
|  \\    /   O peration     | Version:  2406                                  |
|   \\  /    A nd           | Website:  www.openfoam.com                      |
|    \\/     M anipulation  |                                                 |
\*---------------------------------------------------------------------------*/
FoamFile
{
    version     2.0;
    format      ascii;
    arch        "LSB;label=32;scalar=64";
    class       volScalarField;
    location    "0.00012";
    object      k;
}
// * * * * * * * * * * * * * * * * * * * * * * * * * * * * * * * * * * * * * //

dimensions      [0 2 -2 0 0 0 0];

internalField   nonuniform List<scalar> 
16000
(
0.011194277
0.0098706831
0.010050393
0.0099997107
0.010002998
0.010004107
0.010002361
0.010002327
0.010001498
0.010001386
0.010000699
0.010000121
0.0099994338
0.0099990762
0.0099989323
0.0099989116
0.0099989128
0.0099989225
0.0099989224
0.009998921
0.0099989201
0.00999892
0.0099989201
0.0099989201
0.0099989201
0.0099989201
0.0099989201
0.0099989201
0.0099989201
0.0099989201
0.0099989201
0.0099989201
0.0099989201
0.0099989201
0.0099989201
0.0099989201
0.0099989201
0.0099989201
0.0099989201
0.0099989201
0.0099989201
0.0099989201
0.0099989201
0.0099989201
0.0099989201
0.0099989201
0.0099989201
0.0099989201
0.0099989201
0.0099989201
0.0099989201
0.0099989201
0.0099989201
0.0099989201
0.0099989201
0.0099989201
0.0099989201
0.0099989201
0.0099989201
0.0099989201
0.0099989201
0.0099989201
0.0099989201
0.0099989201
0.0099989201
0.0099989201
0.0099989201
0.0099989201
0.0099989201
0.0099989201
0.0099989201
0.0099989201
0.0099989201
0.0099989201
0.0099989201
0.0099989201
0.0099989201
0.0099989201
0.0099989201
0.0099989202
0.011180625
0.009933836
0.010022777
0.010004766
0.010002938
0.010003012
0.010002706
0.010001867
0.010001563
0.010001186
0.010000591
0.0099996049
0.009998855
0.009998593
0.0099986923
0.0099988594
0.0099988937
0.0099989081
0.0099989201
0.0099989221
0.0099989207
0.0099989202
0.0099989201
0.0099989201
0.0099989201
0.0099989201
0.0099989201
0.0099989201
0.0099989201
0.0099989201
0.0099989201
0.0099989201
0.0099989201
0.0099989201
0.0099989201
0.0099989201
0.0099989201
0.0099989201
0.0099989201
0.0099989201
0.0099989201
0.0099989201
0.0099989201
0.0099989201
0.0099989201
0.0099989201
0.0099989201
0.0099989201
0.0099989201
0.0099989201
0.0099989201
0.0099989201
0.0099989201
0.0099989201
0.0099989201
0.0099989201
0.0099989201
0.0099989201
0.0099989201
0.0099989201
0.0099989201
0.0099989201
0.0099989201
0.0099989201
0.0099989201
0.0099989201
0.0099989201
0.0099989201
0.0099989201
0.0099989201
0.0099989201
0.0099989201
0.0099989201
0.0099989201
0.0099989201
0.0099989201
0.0099989201
0.0099989201
0.0099989201
0.0099989205
0.011179645
0.0099892968
0.009980955
0.010020602
0.0099982946
0.010002687
0.010001625
0.010000526
0.010000543
0.010000141
0.0099996829
0.0099984724
0.0099975002
0.009997541
0.009998154
0.009998768
0.009998876
0.0099989095
0.0099989153
0.0099989231
0.0099989215
0.0099989203
0.0099989201
0.0099989201
0.0099989201
0.0099989201
0.0099989201
0.0099989201
0.0099989201
0.0099989201
0.0099989201
0.0099989201
0.0099989201
0.0099989201
0.0099989201
0.0099989201
0.0099989201
0.0099989201
0.0099989201
0.0099989201
0.0099989201
0.0099989201
0.0099989201
0.0099989201
0.0099989201
0.0099989201
0.0099989201
0.0099989201
0.0099989201
0.0099989201
0.0099989201
0.0099989201
0.0099989201
0.0099989201
0.0099989201
0.0099989201
0.0099989201
0.0099989201
0.0099989201
0.0099989201
0.0099989201
0.0099989201
0.0099989201
0.0099989201
0.0099989201
0.0099989201
0.0099989201
0.0099989201
0.0099989201
0.0099989201
0.0099989201
0.0099989201
0.0099989201
0.0099989201
0.0099989201
0.0099989201
0.0099989201
0.0099989201
0.0099989201
0.0099989208
0.011163205
0.010077093
0.0099110958
0.010052321
0.0099888715
0.010003456
0.0099996816
0.0099993146
0.0099989443
0.0099987388
0.0099983908
0.0099969129
0.009995665
0.0099958448
0.0099969858
0.0099984073
0.0099988499
0.0099989116
0.0099989099
0.0099989243
0.0099989225
0.0099989206
0.0099989201
0.0099989201
0.0099989201
0.0099989201
0.0099989201
0.0099989201
0.0099989201
0.0099989201
0.0099989201
0.0099989201
0.0099989201
0.0099989201
0.0099989201
0.0099989201
0.0099989201
0.0099989201
0.0099989201
0.0099989201
0.0099989201
0.0099989201
0.0099989201
0.0099989201
0.0099989201
0.0099989201
0.0099989201
0.0099989201
0.0099989201
0.0099989201
0.0099989201
0.0099989201
0.0099989201
0.0099989201
0.0099989201
0.0099989201
0.0099989201
0.0099989201
0.0099989201
0.0099989201
0.0099989201
0.0099989201
0.0099989201
0.0099989201
0.0099989201
0.0099989201
0.0099989201
0.0099989201
0.0099989201
0.0099989201
0.0099989201
0.0099989201
0.0099989201
0.0099989201
0.0099989201
0.0099989201
0.0099989201
0.0099989201
0.0099989201
0.0099989212
0.011144263
0.010168271
0.0098351573
0.010090627
0.0099707737
0.010006983
0.0099962273
0.0099993497
0.0099968861
0.0099972364
0.0099968493
0.0099951415
0.0099936433
0.0099938623
0.009995445
0.0099976963
0.0099987566
0.0099989143
0.0099989079
0.0099989252
0.0099989236
0.009998921
0.0099989201
0.00999892
0.0099989201
0.0099989201
0.0099989201
0.0099989201
0.0099989201
0.0099989201
0.0099989201
0.0099989201
0.0099989201
0.0099989201
0.0099989201
0.0099989201
0.0099989201
0.0099989201
0.0099989201
0.0099989201
0.0099989201
0.0099989201
0.0099989201
0.0099989201
0.0099989201
0.0099989201
0.0099989201
0.0099989201
0.0099989201
0.0099989201
0.0099989201
0.0099989201
0.0099989201
0.0099989201
0.0099989201
0.0099989201
0.0099989201
0.0099989201
0.0099989201
0.0099989201
0.0099989201
0.0099989201
0.0099989201
0.0099989201
0.0099989201
0.0099989201
0.0099989201
0.0099989201
0.0099989201
0.0099989201
0.0099989201
0.0099989201
0.0099989201
0.0099989201
0.0099989201
0.0099989201
0.0099989201
0.0099989201
0.0099989201
0.0099989215
0.011108627
0.010285739
0.0097396983
0.010135884
0.0099544299
0.010007427
0.0099939267
0.0099982125
0.0099936934
0.0099965062
0.0099950493
0.0099933576
0.0099914966
0.0099917012
0.009993611
0.0099967024
0.0099984664
0.0099989157
0.009998906
0.0099989254
0.009998925
0.0099989216
0.0099989202
0.00999892
0.0099989201
0.0099989201
0.0099989201
0.0099989201
0.0099989201
0.0099989201
0.0099989201
0.0099989201
0.0099989201
0.0099989201
0.0099989201
0.0099989201
0.0099989201
0.0099989201
0.0099989201
0.0099989201
0.0099989201
0.0099989201
0.0099989201
0.0099989201
0.0099989201
0.0099989201
0.0099989201
0.0099989201
0.0099989201
0.0099989201
0.0099989201
0.0099989201
0.0099989201
0.0099989201
0.0099989201
0.0099989201
0.0099989201
0.0099989201
0.0099989201
0.0099989201
0.0099989201
0.0099989201
0.0099989201
0.0099989201
0.0099989201
0.0099989201
0.0099989201
0.0099989201
0.0099989201
0.0099989201
0.0099989201
0.0099989201
0.0099989201
0.0099989201
0.0099989201
0.0099989201
0.0099989201
0.0099989201
0.0099989201
0.0099989219
0.01105807
0.010430422
0.0096205333
0.010191328
0.0099373717
0.010006461
0.0099931634
0.0099953231
0.0099906352
0.0099956742
0.0099927591
0.009991837
0.0099891883
0.0099894381
0.0099915345
0.0099954522
0.009997994
0.0099989131
0.0099989025
0.009998925
0.0099989265
0.0099989223
0.0099989203
0.00999892
0.00999892
0.0099989201
0.0099989201
0.0099989201
0.0099989201
0.0099989201
0.0099989201
0.0099989201
0.0099989201
0.0099989201
0.0099989201
0.0099989201
0.0099989201
0.0099989201
0.0099989201
0.0099989201
0.0099989201
0.0099989201
0.0099989201
0.0099989201
0.0099989201
0.0099989201
0.0099989201
0.0099989201
0.0099989201
0.0099989201
0.0099989201
0.0099989201
0.0099989201
0.0099989201
0.0099989201
0.0099989201
0.0099989201
0.0099989201
0.0099989201
0.0099989201
0.0099989201
0.0099989201
0.0099989201
0.0099989201
0.0099989201
0.0099989201
0.0099989201
0.0099989201
0.0099989201
0.0099989201
0.0099989201
0.0099989201
0.0099989201
0.0099989201
0.0099989201
0.0099989201
0.0099989201
0.0099989201
0.0099989201
0.0099989222
0.010985256
0.01061216
0.0094758636
0.010257276
0.0099182949
0.010003122
0.009996317
0.0099882195
0.0099896879
0.0099934846
0.0099897059
0.0099911385
0.0099865315
0.0099871985
0.0099892439
0.0099939617
0.0099973536
0.0099988473
0.0099988976
0.0099989242
0.0099989282
0.0099989233
0.0099989204
0.00999892
0.00999892
0.0099989201
0.0099989201
0.0099989201
0.0099989201
0.0099989201
0.0099989201
0.0099989201
0.0099989201
0.0099989201
0.0099989201
0.0099989201
0.0099989201
0.0099989201
0.0099989201
0.0099989201
0.0099989201
0.0099989201
0.0099989201
0.0099989201
0.0099989201
0.0099989201
0.0099989201
0.0099989201
0.0099989201
0.0099989201
0.0099989201
0.0099989201
0.0099989201
0.0099989201
0.0099989201
0.0099989201
0.0099989201
0.0099989201
0.0099989201
0.0099989201
0.0099989201
0.0099989201
0.0099989201
0.0099989201
0.0099989201
0.0099989201
0.0099989201
0.0099989201
0.0099989201
0.0099989201
0.0099989201
0.0099989201
0.0099989201
0.0099989201
0.0099989201
0.0099989201
0.0099989201
0.0099989201
0.0099989201
0.0099989226
0.010891783
0.010828931
0.0093059822
0.010332061
0.0098998686
0.0099944916
0.010003644
0.0099764868
0.0099913635
0.0099895759
0.009988294
0.0099891379
0.0099834822
0.0099853738
0.0099867472
0.0099922305
0.0099965476
0.0099986859
0.0099988915
0.0099989244
0.00999893
0.0099989244
0.0099989206
0.00999892
0.00999892
0.0099989201
0.0099989201
0.0099989201
0.0099989201
0.0099989201
0.0099989201
0.0099989201
0.0099989201
0.0099989201
0.0099989201
0.0099989201
0.0099989201
0.0099989201
0.0099989201
0.0099989201
0.0099989201
0.0099989201
0.0099989201
0.0099989201
0.0099989201
0.0099989201
0.0099989201
0.0099989201
0.0099989201
0.0099989201
0.0099989201
0.0099989201
0.0099989201
0.0099989201
0.0099989201
0.0099989201
0.0099989201
0.0099989201
0.0099989201
0.0099989201
0.0099989201
0.0099989201
0.0099989201
0.0099989201
0.0099989201
0.0099989201
0.0099989201
0.0099989201
0.0099989201
0.0099989201
0.0099989201
0.0099989201
0.0099989201
0.0099989201
0.0099989201
0.0099989201
0.0099989201
0.0099989201
0.0099989201
0.0099989231
0.010775445
0.011089196
0.0091038309
0.010419195
0.0098792495
0.0099820628
0.010014346
0.0099641234
0.0099930979
0.0099849999
0.009986605
0.0099860299
0.0099814863
0.0099831202
0.0099840571
0.0099902664
0.0099955734
0.0099984338
0.0099988845
0.0099989266
0.0099989318
0.0099989257
0.0099989209
0.0099989201
0.00999892
0.0099989201
0.0099989201
0.0099989201
0.0099989201
0.0099989201
0.0099989201
0.0099989201
0.0099989201
0.0099989201
0.0099989201
0.0099989201
0.0099989201
0.0099989201
0.0099989201
0.0099989201
0.0099989201
0.0099989201
0.0099989201
0.0099989201
0.0099989201
0.0099989201
0.0099989201
0.0099989201
0.0099989201
0.0099989201
0.0099989201
0.0099989201
0.0099989201
0.0099989201
0.0099989201
0.0099989201
0.0099989201
0.0099989201
0.0099989201
0.0099989201
0.0099989201
0.0099989201
0.0099989201
0.0099989201
0.0099989201
0.0099989201
0.0099989201
0.0099989201
0.0099989201
0.0099989201
0.0099989201
0.0099989201
0.0099989201
0.0099989201
0.0099989201
0.0099989201
0.0099989201
0.0099989201
0.0099989201
0.0099989235
0.010621504
0.011417433
0.0088542187
0.010523431
0.0098555355
0.0099614599
0.010034434
0.0099473368
0.0099962783
0.0099801778
0.0099848032
0.0099825967
0.0099790709
0.0099806708
0.0099811607
0.0099880659
0.0099944259
0.0099980902
0.0099988769
0.0099989287
0.0099989337
0.0099989271
0.0099989213
0.0099989201
0.00999892
0.0099989201
0.0099989201
0.0099989201
0.0099989201
0.0099989201
0.0099989201
0.0099989201
0.0099989201
0.0099989201
0.0099989201
0.0099989201
0.0099989201
0.0099989201
0.0099989201
0.0099989201
0.0099989201
0.0099989201
0.0099989201
0.0099989201
0.0099989201
0.0099989201
0.0099989201
0.0099989201
0.0099989201
0.0099989201
0.0099989201
0.0099989201
0.0099989201
0.0099989201
0.0099989201
0.0099989201
0.0099989201
0.0099989201
0.0099989201
0.0099989201
0.0099989201
0.0099989201
0.0099989201
0.0099989201
0.0099989201
0.0099989201
0.0099989201
0.0099989201
0.0099989201
0.0099989201
0.0099989201
0.0099989201
0.0099989201
0.0099989201
0.0099989201
0.0099989201
0.0099989201
0.0099989201
0.0099989201
0.009998924
0.010412942
0.011833847
0.0085466647
0.010646476
0.0098275602
0.0099382425
0.01005629
0.0099279743
0.010000813
0.0099751086
0.0099826009
0.009978823
0.0099763598
0.0099778964
0.0099781165
0.0099856109
0.009993094
0.00999765
0.0099988632
0.0099989306
0.0099989354
0.0099989287
0.0099989217
0.0099989201
0.00999892
0.0099989201
0.0099989201
0.0099989201
0.0099989201
0.0099989201
0.0099989201
0.0099989201
0.0099989201
0.0099989201
0.0099989201
0.0099989201
0.0099989201
0.0099989201
0.0099989201
0.0099989201
0.0099989201
0.0099989201
0.0099989201
0.0099989201
0.0099989201
0.0099989201
0.0099989201
0.0099989201
0.0099989201
0.0099989201
0.0099989201
0.0099989201
0.0099989201
0.0099989201
0.0099989201
0.0099989201
0.0099989201
0.0099989201
0.0099989201
0.0099989201
0.0099989201
0.0099989201
0.0099989201
0.0099989201
0.0099989201
0.0099989201
0.0099989201
0.0099989201
0.0099989201
0.0099989201
0.0099989201
0.0099989201
0.0099989201
0.0099989201
0.0099989201
0.0099989201
0.0099989201
0.0099989201
0.0099989201
0.0099989245
0.010165734
0.012326662
0.0081869668
0.01078473
0.0097952646
0.0099113618
0.010082776
0.0099046644
0.010006983
0.0099690036
0.009980345
0.0099753736
0.0099734821
0.0099741435
0.0099751291
0.0099828875
0.0099915629
0.0099971067
0.0099988108
0.0099989324
0.0099989369
0.0099989305
0.0099989222
0.0099989202
0.00999892
0.00999892
0.0099989201
0.0099989201
0.0099989201
0.0099989201
0.0099989201
0.0099989201
0.0099989201
0.0099989201
0.0099989201
0.0099989201
0.0099989201
0.0099989201
0.0099989201
0.0099989201
0.0099989201
0.0099989201
0.0099989201
0.0099989201
0.0099989201
0.0099989201
0.0099989201
0.0099989201
0.0099989201
0.0099989201
0.0099989201
0.0099989201
0.0099989201
0.0099989201
0.0099989201
0.0099989201
0.0099989201
0.0099989201
0.0099989201
0.0099989201
0.0099989201
0.0099989201
0.0099989201
0.0099989201
0.0099989201
0.0099989201
0.0099989201
0.0099989201
0.0099989201
0.0099989201
0.0099989201
0.0099989201
0.0099989201
0.0099989201
0.0099989201
0.0099989201
0.0099989201
0.0099989201
0.0099989201
0.0099989251
0.0098829645
0.012883929
0.0077796488
0.010934948
0.0097593295
0.0098797107
0.010114857
0.0098766177
0.010014981
0.0099612906
0.0099783002
0.0099721235
0.0099702513
0.0099698883
0.0099719656
0.0099798767
0.0099898158
0.0099964526
0.009998713
0.0099989342
0.0099989382
0.0099989325
0.0099989229
0.0099989202
0.00999892
0.00999892
0.0099989201
0.0099989201
0.0099989201
0.0099989201
0.0099989201
0.0099989201
0.0099989201
0.0099989201
0.0099989201
0.0099989201
0.0099989201
0.0099989201
0.0099989201
0.0099989201
0.0099989201
0.0099989201
0.0099989201
0.0099989201
0.0099989201
0.0099989201
0.0099989201
0.0099989201
0.0099989201
0.0099989201
0.0099989201
0.0099989201
0.0099989201
0.0099989201
0.0099989201
0.0099989201
0.0099989201
0.0099989201
0.0099989201
0.0099989201
0.0099989201
0.0099989201
0.0099989201
0.0099989201
0.0099989201
0.0099989201
0.0099989201
0.0099989201
0.0099989201
0.0099989201
0.0099989201
0.0099989201
0.0099989201
0.0099989201
0.0099989201
0.0099989201
0.0099989201
0.0099989201
0.0099989201
0.0099989257
0.0095381494
0.01354035
0.0073065547
0.011096573
0.0097185376
0.0098405328
0.010154842
0.0098421167
0.010025492
0.0099512929
0.009976708
0.0099684148
0.009966916
0.0099652985
0.0099685193
0.009976559
0.0099878378
0.0099956793
0.0099985673
0.009998936
0.0099989394
0.0099989347
0.0099989236
0.0099989203
0.00999892
0.00999892
0.0099989201
0.0099989201
0.0099989201
0.0099989201
0.0099989201
0.0099989201
0.0099989201
0.0099989201
0.0099989201
0.0099989201
0.0099989201
0.0099989201
0.0099989201
0.0099989201
0.0099989201
0.0099989201
0.0099989201
0.0099989201
0.0099989201
0.0099989201
0.0099989201
0.0099989201
0.0099989201
0.0099989201
0.0099989201
0.0099989201
0.0099989201
0.0099989201
0.0099989201
0.0099989201
0.0099989201
0.0099989201
0.0099989201
0.0099989201
0.0099989201
0.0099989201
0.0099989201
0.0099989201
0.0099989201
0.0099989201
0.0099989201
0.0099989201
0.0099989201
0.0099989201
0.0099989201
0.0099989201
0.0099989201
0.0099989201
0.0099989201
0.0099989201
0.0099989201
0.0099989201
0.0099989201
0.0099989263
0.0091118641
0.014323632
0.006768474
0.011245704
0.0096745489
0.0097915008
0.010205237
0.0097989302
0.010039504
0.0099386702
0.009975424
0.009964041
0.0099633576
0.0099602762
0.0099647301
0.0099729006
0.0099856133
0.0099947799
0.0099983715
0.0099989382
0.0099989405
0.0099989371
0.0099989245
0.0099989204
0.00999892
0.00999892
0.0099989201
0.0099989201
0.0099989201
0.0099989201
0.0099989201
0.0099989201
0.0099989201
0.0099989201
0.0099989201
0.0099989201
0.0099989201
0.0099989201
0.0099989201
0.0099989201
0.0099989201
0.0099989201
0.0099989201
0.0099989201
0.0099989201
0.0099989201
0.0099989201
0.0099989201
0.0099989201
0.0099989201
0.0099989201
0.0099989201
0.0099989201
0.0099989201
0.0099989201
0.0099989201
0.0099989201
0.0099989201
0.0099989201
0.0099989201
0.0099989201
0.0099989201
0.0099989201
0.0099989201
0.0099989201
0.0099989201
0.0099989201
0.0099989201
0.0099989201
0.0099989201
0.0099989201
0.0099989201
0.0099989201
0.0099989201
0.0099989201
0.0099989201
0.0099989201
0.0099989201
0.0099989201
0.009998927
0.0086096027
0.015213479
0.0062027624
0.011350487
0.0096266877
0.0097330968
0.010265265
0.0097465672
0.010057083
0.0099232491
0.0099744768
0.0099589825
0.0099594489
0.0099546967
0.0099605672
0.00996885
0.0099831244
0.0099937502
0.0099981255
0.0099989412
0.009998942
0.0099989396
0.0099989255
0.0099989205
0.00999892
0.00999892
0.0099989201
0.0099989201
0.0099989201
0.0099989201
0.0099989201
0.0099989201
0.0099989201
0.0099989201
0.0099989201
0.0099989201
0.0099989201
0.0099989201
0.0099989201
0.0099989201
0.0099989201
0.0099989201
0.0099989201
0.0099989201
0.0099989201
0.0099989201
0.0099989201
0.0099989201
0.0099989201
0.0099989201
0.0099989201
0.0099989201
0.0099989201
0.0099989201
0.0099989201
0.0099989201
0.0099989201
0.0099989201
0.0099989201
0.0099989201
0.0099989201
0.0099989201
0.0099989201
0.0099989201
0.0099989201
0.0099989201
0.0099989201
0.0099989201
0.0099989201
0.0099989201
0.0099989201
0.0099989201
0.0099989201
0.0099989201
0.0099989201
0.0099989201
0.0099989201
0.0099989201
0.0099989201
0.0099989277
0.0080375284
0.016229908
0.0056177871
0.011383596
0.0095784194
0.0096588423
0.0103383
0.0096833326
0.010078794
0.0099052251
0.0099740369
0.0099533913
0.009955305
0.00994869
0.0099560554
0.0099644134
0.009980381
0.0099926021
0.0099978342
0.0099989455
0.0099989446
0.0099989424
0.0099989267
0.0099989207
0.00999892
0.00999892
0.0099989201
0.0099989201
0.0099989201
0.0099989201
0.0099989201
0.0099989201
0.0099989201
0.0099989201
0.0099989201
0.0099989201
0.0099989201
0.0099989201
0.0099989201
0.0099989201
0.0099989201
0.0099989201
0.0099989201
0.0099989201
0.0099989201
0.0099989201
0.0099989201
0.0099989201
0.0099989201
0.0099989201
0.0099989201
0.0099989201
0.0099989201
0.0099989201
0.0099989201
0.0099989201
0.0099989201
0.0099989201
0.0099989201
0.0099989201
0.0099989201
0.0099989201
0.0099989201
0.0099989201
0.0099989201
0.0099989201
0.0099989201
0.0099989201
0.0099989201
0.0099989201
0.0099989201
0.0099989201
0.0099989201
0.0099989201
0.0099989201
0.0099989201
0.0099989201
0.0099989201
0.0099989201
0.0099989285
0.0073086759
0.017390935
0.0049666974
0.011306734
0.0095290737
0.0095719285
0.010418669
0.0096084365
0.010103908
0.0098846265
0.0099739829
0.0099474588
0.0099512726
0.0099426876
0.0099512961
0.0099597781
0.0099775119
0.0099913923
0.0099975145
0.0099989516
0.0099989482
0.0099989453
0.0099989278
0.0099989208
0.00999892
0.00999892
0.0099989201
0.0099989201
0.0099989201
0.0099989201
0.0099989201
0.0099989201
0.0099989201
0.0099989201
0.0099989201
0.0099989201
0.0099989201
0.0099989201
0.0099989201
0.0099989201
0.0099989201
0.0099989201
0.0099989201
0.0099989201
0.0099989201
0.0099989201
0.0099989201
0.0099989201
0.0099989201
0.0099989201
0.0099989201
0.0099989201
0.0099989201
0.0099989201
0.0099989201
0.0099989201
0.0099989201
0.0099989201
0.0099989201
0.0099989201
0.0099989201
0.0099989201
0.0099989201
0.0099989201
0.0099989201
0.0099989201
0.0099989201
0.0099989201
0.0099989201
0.0099989201
0.0099989201
0.0099989201
0.0099989201
0.0099989201
0.0099989201
0.0099989201
0.0099989201
0.0099989201
0.0099989201
0.0099989293
0.006132524
0.018774429
0.0040299441
0.010924918
0.0094736397
0.0094630531
0.010514502
0.0095161944
0.010134285
0.0098622046
0.0099746286
0.0099413639
0.0099474974
0.0099373038
0.0099465703
0.0099553585
0.0099747988
0.0099902425
0.0099972062
0.0099989529
0.0099989521
0.0099989481
0.0099989288
0.0099989209
0.00999892
0.00999892
0.0099989201
0.0099989201
0.0099989201
0.0099989201
0.0099989201
0.0099989201
0.0099989201
0.0099989201
0.0099989201
0.0099989201
0.0099989201
0.0099989201
0.0099989201
0.0099989201
0.0099989201
0.0099989201
0.0099989201
0.0099989201
0.0099989201
0.0099989201
0.0099989201
0.0099989201
0.0099989201
0.0099989201
0.0099989201
0.0099989201
0.0099989201
0.0099989201
0.0099989201
0.0099989201
0.0099989201
0.0099989201
0.0099989201
0.0099989201
0.0099989201
0.0099989201
0.0099989201
0.0099989201
0.0099989201
0.0099989201
0.0099989201
0.0099989201
0.0099989201
0.0099989201
0.0099989201
0.0099989201
0.0099989201
0.0099989201
0.0099989201
0.0099989201
0.0099989201
0.0099989201
0.0099989201
0.0099989302
0.0046392218
0.019202166
0.0031163873
0.010083543
0.0094956529
0.0092730374
0.010684906
0.009379547
0.010188012
0.0098323111
0.0099785728
0.0099345152
0.009944317
0.0099336521
0.0099417159
0.0099516452
0.0099725831
0.0099893411
0.0099969702
0.0099989523
0.0099989557
0.0099989504
0.0099989296
0.009998921
0.0099989199
0.00999892
0.0099989201
0.0099989201
0.0099989201
0.0099989201
0.0099989201
0.0099989201
0.0099989201
0.0099989201
0.0099989201
0.0099989201
0.0099989201
0.0099989201
0.0099989201
0.0099989201
0.0099989201
0.0099989201
0.0099989201
0.0099989201
0.0099989201
0.0099989201
0.0099989201
0.0099989201
0.0099989201
0.0099989201
0.0099989201
0.0099989201
0.0099989201
0.0099989201
0.0099989201
0.0099989201
0.0099989201
0.0099989201
0.0099989201
0.0099989201
0.0099989201
0.0099989201
0.0099989201
0.0099989201
0.0099989201
0.0099989201
0.0099989201
0.0099989201
0.0099989201
0.0099989201
0.0099989201
0.0099989201
0.0099989201
0.0099989201
0.0099989201
0.0099989201
0.0099989201
0.0099989201
0.0099989201
0.0099989311
0.0035886021
0.015102797
0.0025119357
0.0097053881
0.0095463447
0.0090498529
0.010890472
0.0092325244
0.010248796
0.0098027478
0.0099830859
0.0099311302
0.0099419571
0.0099327786
0.0099363546
0.0099490286
0.0099712329
0.0099888781
0.0099968727
0.0099989594
0.0099989587
0.0099989519
0.0099989299
0.009998921
0.0099989199
0.00999892
0.0099989201
0.0099989201
0.0099989201
0.0099989201
0.0099989201
0.0099989201
0.0099989201
0.0099989201
0.0099989201
0.0099989201
0.0099989201
0.0099989201
0.0099989201
0.0099989201
0.0099989201
0.0099989201
0.0099989201
0.0099989201
0.0099989201
0.0099989201
0.0099989201
0.0099989201
0.0099989201
0.0099989201
0.0099989201
0.0099989201
0.0099989201
0.0099989201
0.0099989201
0.0099989201
0.0099989201
0.0099989201
0.0099989201
0.0099989201
0.0099989201
0.0099989201
0.0099989201
0.0099989201
0.0099989201
0.0099989201
0.0099989201
0.0099989201
0.0099989201
0.0099989201
0.0099989201
0.0099989201
0.0099989201
0.0099989201
0.0099989201
0.0099989201
0.0099989201
0.0099989201
0.0099989201
0.009998932
0.0030427373
0.009536656
0.0020855499
0.0098390611
0.0096505751
0.0088315271
0.011110698
0.0090997587
0.010302231
0.009787265
0.0099813288
0.0099374805
0.0099393822
0.0099308135
0.0099316237
0.0099477517
0.0099710137
0.0099889901
0.0099969589
0.0099989783
0.0099989608
0.0099989522
0.0099989295
0.0099989209
0.0099989199
0.00999892
0.0099989201
0.0099989201
0.0099989201
0.0099989201
0.0099989201
0.0099989201
0.0099989201
0.0099989201
0.0099989201
0.0099989201
0.0099989201
0.0099989201
0.0099989201
0.0099989201
0.0099989201
0.0099989201
0.0099989201
0.0099989201
0.0099989201
0.0099989201
0.0099989201
0.0099989201
0.0099989201
0.0099989201
0.0099989201
0.0099989201
0.0099989201
0.0099989201
0.0099989201
0.0099989201
0.0099989201
0.0099989201
0.0099989201
0.0099989201
0.0099989201
0.0099989201
0.0099989201
0.0099989201
0.0099989201
0.0099989201
0.0099989201
0.0099989201
0.0099989201
0.0099989201
0.0099989201
0.0099989201
0.0099989201
0.0099989201
0.0099989201
0.0099989201
0.0099989201
0.0099989201
0.0099989201
0.0099989329
0.0026429499
0.005629084
0.0017410911
0.01023725
0.0098566076
0.0086102853
0.011295096
0.0090071012
0.010326242
0.009802654
0.0099721063
0.0099441922
0.0099393657
0.0099269419
0.0099303097
0.0099480593
0.0099720102
0.0099896887
0.0099972198
0.0099990015
0.0099989614
0.0099989512
0.0099989286
0.0099989207
0.0099989199
0.00999892
0.0099989201
0.0099989201
0.0099989201
0.0099989201
0.0099989201
0.0099989201
0.0099989201
0.0099989201
0.0099989201
0.0099989201
0.0099989201
0.0099989201
0.0099989201
0.0099989201
0.0099989201
0.0099989201
0.0099989201
0.0099989201
0.0099989201
0.0099989201
0.0099989201
0.0099989201
0.0099989201
0.0099989201
0.0099989201
0.0099989201
0.0099989201
0.0099989201
0.0099989201
0.0099989201
0.0099989201
0.0099989201
0.0099989201
0.0099989201
0.0099989201
0.0099989201
0.0099989201
0.0099989201
0.0099989201
0.0099989201
0.0099989201
0.0099989201
0.0099989201
0.0099989201
0.0099989201
0.0099989201
0.0099989201
0.0099989201
0.0099989201
0.0099989201
0.0099989201
0.0099989201
0.0099989201
0.0099989338
0.002137926
0.0028810446
0.0013675005
0.01070213
0.010356234
0.0082828549
0.011425436
0.0089895499
0.010302445
0.0098472305
0.0099617849
0.0099428205
0.0099415623
0.0099262507
0.0099308836
0.0099499743
0.0099740208
0.0099908081
0.0099975857
0.0099990136
0.0099989611
0.0099989491
0.0099989272
0.0099989205
0.0099989199
0.00999892
0.0099989201
0.0099989201
0.0099989201
0.0099989201
0.0099989201
0.0099989201
0.0099989201
0.0099989201
0.0099989201
0.0099989201
0.0099989201
0.0099989201
0.0099989201
0.0099989201
0.0099989201
0.0099989201
0.0099989201
0.0099989201
0.0099989201
0.0099989201
0.0099989201
0.0099989201
0.0099989201
0.0099989201
0.0099989201
0.0099989201
0.0099989201
0.0099989201
0.0099989201
0.0099989201
0.0099989201
0.0099989201
0.0099989201
0.0099989201
0.0099989201
0.0099989201
0.0099989201
0.0099989201
0.0099989201
0.0099989201
0.0099989201
0.0099989201
0.0099989201
0.0099989201
0.0099989201
0.0099989201
0.0099989201
0.0099989201
0.0099989201
0.0099989201
0.0099989201
0.0099989201
0.0099989201
0.0099989347
0.001796446
0.0018299401
0.0011122247
0.011319098
0.011218076
0.0078804968
0.011461404
0.009063235
0.010254594
0.0098807834
0.0099622431
0.0099447349
0.0099429137
0.0099266663
0.0099326872
0.009952971
0.009976577
0.0099920863
0.0099979616
0.0099990116
0.0099989616
0.0099989462
0.0099989257
0.0099989203
0.0099989199
0.00999892
0.0099989201
0.0099989201
0.0099989201
0.0099989201
0.0099989201
0.0099989201
0.0099989201
0.0099989201
0.0099989201
0.0099989201
0.0099989201
0.0099989201
0.0099989201
0.0099989201
0.0099989201
0.0099989201
0.0099989201
0.0099989201
0.0099989201
0.0099989201
0.0099989201
0.0099989201
0.0099989201
0.0099989201
0.0099989201
0.0099989201
0.0099989201
0.0099989201
0.0099989201
0.0099989201
0.0099989201
0.0099989201
0.0099989201
0.0099989201
0.0099989201
0.0099989201
0.0099989201
0.0099989201
0.0099989201
0.0099989201
0.0099989201
0.0099989201
0.0099989201
0.0099989201
0.0099989201
0.0099989201
0.0099989201
0.0099989201
0.0099989201
0.0099989201
0.0099989201
0.0099989201
0.0099989201
0.0099989355
0.0020834303
0.0019556469
0.0012464245
0.011100328
0.011770794
0.0077075784
0.011372477
0.0092088443
0.010188253
0.009912484
0.0099640796
0.0099474229
0.0099432782
0.0099277445
0.0099349365
0.009956239
0.0099790452
0.0099932199
0.0099982608
0.0099990059
0.0099989615
0.0099989433
0.0099989244
0.0099989202
0.0099989199
0.00999892
0.0099989201
0.0099989201
0.0099989201
0.0099989201
0.0099989201
0.0099989201
0.0099989201
0.0099989201
0.0099989201
0.0099989201
0.0099989201
0.0099989201
0.0099989201
0.0099989201
0.0099989201
0.0099989201
0.0099989201
0.0099989201
0.0099989201
0.0099989201
0.0099989201
0.0099989201
0.0099989201
0.0099989201
0.0099989201
0.0099989201
0.0099989201
0.0099989201
0.0099989201
0.0099989201
0.0099989201
0.0099989201
0.0099989201
0.0099989201
0.0099989201
0.0099989201
0.0099989201
0.0099989201
0.0099989201
0.0099989201
0.0099989201
0.0099989201
0.0099989201
0.0099989201
0.0099989201
0.0099989201
0.0099989201
0.0099989201
0.0099989201
0.0099989201
0.0099989201
0.0099989201
0.0099989201
0.0099989361
0.0029111295
0.0051239126
0.001807543
0.01016581
0.011776653
0.0080564505
0.011051657
0.0094618781
0.010089607
0.0099350723
0.009965097
0.0099497962
0.0099430518
0.009929143
0.0099366685
0.0099588382
0.0099807612
0.009993955
0.0099984327
0.0099990011
0.0099989607
0.0099989412
0.0099989237
0.0099989201
0.00999892
0.00999892
0.0099989201
0.0099989201
0.0099989201
0.0099989201
0.0099989201
0.0099989201
0.0099989201
0.0099989201
0.0099989201
0.0099989201
0.0099989201
0.0099989201
0.0099989201
0.0099989201
0.0099989201
0.0099989201
0.0099989201
0.0099989201
0.0099989201
0.0099989201
0.0099989201
0.0099989201
0.0099989201
0.0099989201
0.0099989201
0.0099989201
0.0099989201
0.0099989201
0.0099989201
0.0099989201
0.0099989201
0.0099989201
0.0099989201
0.0099989201
0.0099989201
0.0099989201
0.0099989201
0.0099989201
0.0099989201
0.0099989201
0.0099989201
0.0099989201
0.0099989201
0.0099989201
0.0099989201
0.0099989201
0.0099989201
0.0099989201
0.0099989201
0.0099989201
0.0099989201
0.0099989201
0.0099989201
0.0099989366
0.004403666
0.016912442
0.0029942673
0.0099698084
0.011043201
0.008795431
0.010561179
0.0097667911
0.0099940966
0.0099465627
0.0099659421
0.0099514245
0.0099428262
0.009930644
0.0099371993
0.0099598601
0.0099811621
0.0099940857
0.0099984481