/*--------------------------------*- C++ -*----------------------------------*\
| =========                 |                                                 |
| \\      /  F ield         | OpenFOAM: The Open Source CFD Toolbox           |
|  \\    /   O peration     | Version:  2406                                  |
|   \\  /    A nd           | Website:  www.openfoam.com                      |
|    \\/     M anipulation  |                                                 |
\*---------------------------------------------------------------------------*/
FoamFile
{
    version     2.0;
    format      ascii;
    arch        "LSB;label=32;scalar=64";
    class       volScalarField;
    location    "0.00012";
    object      nut;
}
// * * * * * * * * * * * * * * * * * * * * * * * * * * * * * * * * * * * * * //

dimensions      [0 2 -1 0 0 0 0];

internalField   nonuniform List<scalar> 
16000
(
1.0404678e-05
1.6350916e-05
4.0010398e-05
0.00010149443
7.7910088e-05
7.6975644e-05
0.00010715699
0.00013545932
0.00014802295
0.00016765928
0.00016893196
0.00014184143
0.00014798489
0.00016611581
0.00021718813
0.00039326931
0.00090808079
0.0009999197
0.0009999197
0.00099991982
0.0009999199
0.00099991991
0.00099991994
0.00099992002
0.00099992019
0.00099992045
0.00099992077
0.00099992111
0.00099992142
0.0009999217
0.00099992192
0.00099992211
0.00099992225
0.00099992237
0.00099992246
0.00099992253
0.00099992258
0.00099992263
0.00099992266
0.00099992269
0.00099992271
0.00099992273
0.00099992275
0.00099992276
0.00099992277
0.00099992277
0.00099992278
0.00099992278
0.00099992279
0.00099992279
0.00099992279
0.0009999228
0.0009999228
0.0009999228
0.0009999228
0.0009999228
0.0009999228
0.0009999228
0.0009999228
0.0009999228
0.0009999228
0.0009999228
0.0009999228
0.0009999228
0.0009999228
0.0009999228
0.0009999228
0.0009999228
0.0009999228
0.0009999228
0.0009999228
0.0009999228
0.0009999228
0.0009999228
0.0009999228
0.0009999228
0.0009999228
0.0009999228
0.0009999228
0.00099992282
1.0083128e-05
4.1963088e-05
4.6521885e-05
0.0001581375
8.6190417e-05
0.00013892038
0.00011087295
0.00015248259
0.00012601889
0.00015915651
0.00013841529
0.00012420733
0.00012322333
9.1566319e-05
8.5871748e-05
0.00012978765
0.00026362537
0.00099573953
0.0009999199
0.00099991973
0.00099991985
0.0009999199
0.00099991993
0.00099991999
0.00099992014
0.00099992038
0.00099992069
0.00099992103
0.00099992135
0.00099992163
0.00099992187
0.00099992206
0.00099992222
0.00099992234
0.00099992244
0.00099992251
0.00099992257
0.00099992262
0.00099992266
0.00099992269
0.00099992271
0.00099992273
0.00099992274
0.00099992276
0.00099992276
0.00099992277
0.00099992278
0.00099992278
0.00099992279
0.00099992279
0.00099992279
0.0009999228
0.0009999228
0.0009999228
0.0009999228
0.0009999228
0.0009999228
0.0009999228
0.0009999228
0.0009999228
0.0009999228
0.0009999228
0.0009999228
0.0009999228
0.0009999228
0.0009999228
0.0009999228
0.0009999228
0.0009999228
0.0009999228
0.0009999228
0.0009999228
0.0009999228
0.0009999228
0.0009999228
0.0009999228
0.0009999228
0.0009999228
0.0009999228
0.00099992285
9.8006637e-06
0.00031944058
0.00016079305
8.8359859e-05
6.0817991e-05
0.00021226104
0.00013787177
0.00018718835
0.00011288104
0.00015124252
0.00011125214
0.00010692343
0.00010919322
6.0890269e-05
5.1057985e-05
7.0765635e-05
0.00013305415
0.00041712612
0.00099992047
0.00099991963
0.00099991978
0.00099991988
0.00099991992
0.00099991997
0.0009999201
0.00099992032
0.00099992062
0.00099992095
0.00099992128
0.00099992157
0.00099992182
0.00099992202
0.00099992218
0.00099992231
0.00099992241
0.00099992249
0.00099992256
0.00099992261
0.00099992265
0.00099992268
0.0009999227
0.00099992272
0.00099992274
0.00099992275
0.00099992276
0.00099992277
0.00099992278
0.00099992278
0.00099992279
0.00099992279
0.00099992279
0.0009999228
0.0009999228
0.0009999228
0.0009999228
0.0009999228
0.0009999228
0.0009999228
0.0009999228
0.0009999228
0.0009999228
0.0009999228
0.0009999228
0.0009999228
0.0009999228
0.0009999228
0.0009999228
0.0009999228
0.0009999228
0.0009999228
0.0009999228
0.0009999228
0.0009999228
0.0009999228
0.0009999228
0.0009999228
0.0009999228
0.0009999228
0.0009999228
0.00099992288
7.2112453e-06
2.8216719e-05
4.161029e-05
5.0956647e-05
5.3845744e-05
0.00025176664
9.1882613e-05
0.00012864219
0.00010916924
0.00012304096
9.3766574e-05
9.0239184e-05
0.00010467962
4.6776757e-05
3.5753298e-05
4.5921192e-05
8.1348866e-05
0.00022617385
0.00099992168
0.00099991952
0.00099991969
0.00099991986
0.00099991991
0.00099991996
0.00099992007
0.00099992027
0.00099992056
0.00099992089
0.00099992122
0.00099992152
0.00099992177
0.00099992198
0.00099992215
0.00099992229
0.00099992239
0.00099992248
0.00099992255
0.0009999226
0.00099992264
0.00099992267
0.0009999227
0.00099992272
0.00099992274
0.00099992275
0.00099992276
0.00099992277
0.00099992278
0.00099992278
0.00099992279
0.00099992279
0.00099992279
0.00099992279
0.0009999228
0.0009999228
0.0009999228
0.0009999228
0.0009999228
0.0009999228
0.0009999228
0.0009999228
0.0009999228
0.0009999228
0.0009999228
0.0009999228
0.0009999228
0.0009999228
0.0009999228
0.0009999228
0.0009999228
0.0009999228
0.0009999228
0.0009999228
0.0009999228
0.0009999228
0.0009999228
0.0009999228
0.0009999228
0.0009999228
0.0009999228
0.0009999229
8.8473322e-06
1.3878016e-05
1.8062297e-05
3.5970507e-05
4.2742023e-05
0.00027247767
6.2168067e-05
7.7289658e-05
0.00012115298
9.0950871e-05
8.1012051e-05
7.4341637e-05
9.951613e-05
3.8827364e-05
2.7406344e-05
3.2877457e-05
5.5156132e-05
0.00013966096
0.00077874581
0.00099991944
0.00099991959
0.00099991982
0.00099991991
0.00099991995
0.00099992004
0.00099992023
0.0009999205
0.00099992083
0.00099992116
0.00099992146
0.00099992173
0.00099992195
0.00099992212
0.00099992226
0.00099992238
0.00099992246
0.00099992253
0.00099992259
0.00099992263
0.00099992267
0.00099992269
0.00099992272
0.00099992273
0.00099992275
0.00099992276
0.00099992277
0.00099992277
0.00099992278
0.00099992279
0.00099992279
0.00099992279
0.00099992279
0.0009999228
0.0009999228
0.0009999228
0.0009999228
0.0009999228
0.0009999228
0.0009999228
0.0009999228
0.0009999228
0.0009999228
0.0009999228
0.0009999228
0.0009999228
0.0009999228
0.0009999228
0.0009999228
0.0009999228
0.0009999228
0.0009999228
0.0009999228
0.0009999228
0.0009999228
0.0009999228
0.0009999228
0.0009999228
0.0009999228
0.0009999228
0.00099992294
8.9305871e-06
8.2884745e-06
9.7118955e-06
2.8693664e-05
3.7315024e-05
0.00013822983
4.1580889e-05
5.372862e-05
0.00011931893
6.8546809e-05
7.4636598e-05
6.2158791e-05
8.5866345e-05
3.4073085e-05
2.222203e-05
2.5051718e-05
3.9918309e-05
9.606891e-05
0.00047163832
0.00099991943
0.00099991947
0.00099991977
0.0009999199
0.00099991994
0.00099992002
0.00099992019
0.00099992045
0.00099992077
0.00099992111
0.00099992142
0.00099992169
0.00099992191
0.0009999221
0.00099992224
0.00099992236
0.00099992245
0.00099992252
0.00099992258
0.00099992263
0.00099992266
0.00099992269
0.00099992271
0.00099992273
0.00099992275
0.00099992276
0.00099992277
0.00099992277
0.00099992278
0.00099992278
0.00099992279
0.00099992279
0.00099992279
0.0009999228
0.0009999228
0.0009999228
0.0009999228
0.0009999228
0.0009999228
0.0009999228
0.0009999228
0.0009999228
0.0009999228
0.0009999228
0.0009999228
0.0009999228
0.0009999228
0.0009999228
0.0009999228
0.0009999228
0.0009999228
0.0009999228
0.0009999228
0.0009999228
0.0009999228
0.0009999228
0.0009999228
0.0009999228
0.0009999228
0.0009999228
0.00099992297
5.5300925e-06
5.56615e-06
7.0248141e-06
4.6948984e-05
3.2138987e-05
4.9162417e-05
2.9881433e-05
3.9876144e-05
8.1520032e-05
5.118455e-05
7.2758827e-05
5.3048532e-05
6.7868346e-05
3.1024363e-05
1.8727293e-05
1.9936796e-05
3.025856e-05
6.9513309e-05
0.00030567503
0.00099991958
0.00099991933
0.00099991971
0.00099991989
0.00099991993
0.00099992
0.00099992015
0.00099992039
0.0009999207
0.00099992103
0.00099992135
0.00099992163
0.00099992186
0.00099992206
0.00099992221
0.00099992233
0.00099992243
0.00099992251
0.00099992257
0.00099992262
0.00099992266
0.00099992269
0.00099992271
0.00099992273
0.00099992274
0.00099992276
0.00099992277
0.00099992277
0.00099992278
0.00099992278
0.00099992279
0.00099992279
0.00099992279
0.0009999228
0.0009999228
0.0009999228
0.0009999228
0.0009999228
0.0009999228
0.0009999228
0.0009999228
0.0009999228
0.0009999228
0.0009999228
0.0009999228
0.0009999228
0.0009999228
0.0009999228
0.0009999228
0.0009999228
0.0009999228
0.0009999228
0.0009999228
0.0009999228
0.0009999228
0.0009999228
0.0009999228
0.0009999228
0.0009999228
0.0009999228
0.000999923
3.9328562e-06
3.9073865e-06
4.0308655e-06
4.842108e-05
2.6656751e-05
4.4064684e-05
2.3609202e-05
3.0492331e-05
4.4070646e-05
3.7382055e-05
7.5174151e-05
4.5496618e-05
5.296316e-05
2.8992369e-05
1.6207532e-05
1.6393565e-05
2.3750139e-05
5.2265789e-05
0.00020869108
0.00099991997
0.00099991918
0.00099991962
0.00099991987
0.00099991993
0.00099991998
0.00099992012
0.00099992035
0.00099992065
0.00099992098
0.0009999213
0.00099992159
0.00099992183
0.00099992203
0.00099992219
0.00099992232
0.00099992242
0.0009999225
0.00099992256
0.00099992261
0.00099992265
0.00099992268
0.00099992271
0.00099992273
0.00099992274
0.00099992275
0.00099992276
0.00099992277
0.00099992278
0.00099992278
0.00099992279
0.00099992279
0.00099992279
0.0009999228
0.0009999228
0.0009999228
0.0009999228
0.0009999228
0.0009999228
0.0009999228
0.0009999228
0.0009999228
0.0009999228
0.0009999228
0.0009999228
0.0009999228
0.0009999228
0.0009999228
0.0009999228
0.0009999228
0.0009999228
0.0009999228
0.0009999228
0.0009999228
0.0009999228
0.0009999228
0.0009999228
0.0009999228
0.0009999228
0.0009999228
0.00099992304
2.886752e-06
2.7597978e-06
2.8363566e-06
2.8730454e-05
2.0254292e-05
4.0172335e-05
1.9580507e-05
2.6017107e-05
2.8849377e-05
2.57395e-05
7.452938e-05
3.8269633e-05
4.137433e-05
2.7482133e-05
1.429037e-05
1.3787663e-05
1.9147336e-05
4.048067e-05
0.00014848627
0.00099992076
0.00099991902
0.00099991953
0.00099991986
0.00099991992
0.00099991997
0.0009999201
0.00099992031
0.0009999206
0.00099992094
0.00099992126
0.00099992155
0.0009999218
0.00099992201
0.00099992217
0.0009999223
0.00099992241
0.00099992249
0.00099992255
0.0009999226
0.00099992265
0.00099992268
0.0009999227
0.00099992272
0.00099992274
0.00099992275
0.00099992276
0.00099992277
0.00099992278
0.00099992278
0.00099992279
0.00099992279
0.00099992279
0.0009999228
0.0009999228
0.0009999228
0.0009999228
0.0009999228
0.0009999228
0.0009999228
0.0009999228
0.0009999228
0.0009999228
0.0009999228
0.0009999228
0.0009999228
0.0009999228
0.0009999228
0.0009999228
0.0009999228
0.0009999228
0.0009999228
0.0009999228
0.0009999228
0.0009999228
0.0009999228
0.0009999228
0.0009999228
0.0009999228
0.0009999228
0.00099992308
1.963275e-06
2.0503883e-06
2.0607106e-06
1.6031223e-05
1.474924e-05
4.8892736e-05
1.6259416e-05
2.3899501e-05
2.0934978e-05
1.8724978e-05
6.9634855e-05
3.232066e-05
3.3173968e-05
2.5976838e-05
1.2824641e-05
1.1793712e-05
1.5766718e-05
3.210972e-05
0.0001092227
0.00072735122
0.00099991885
0.00099991941
0.00099991983
0.00099991992
0.00099991997
0.00099992008
0.00099992028
0.00099992057
0.0009999209
0.00099992123
0.00099992153
0.00099992178
0.00099992199
0.00099992216
0.00099992229
0.0009999224
0.00099992248
0.00099992255
0.0009999226
0.00099992264
0.00099992267
0.0009999227
0.00099992272
0.00099992274
0.00099992275
0.00099992276
0.00099992277
0.00099992278
0.00099992278
0.00099992279
0.00099992279
0.00099992279
0.0009999228
0.0009999228
0.0009999228
0.0009999228
0.0009999228
0.0009999228
0.0009999228
0.0009999228
0.0009999228
0.0009999228
0.0009999228
0.0009999228
0.0009999228
0.0009999228
0.0009999228
0.0009999228
0.0009999228
0.0009999228
0.0009999228
0.0009999228
0.0009999228
0.0009999228
0.0009999228
0.0009999228
0.0009999228
0.0009999228
0.0009999228
0.00099992312
1.2954683e-06
1.527668e-06
1.5117144e-06
8.9603565e-06
1.0564135e-05
2.0409943e-05
1.3019789e-05
2.4156453e-05
1.6063911e-05
1.4455035e-05
6.2106774e-05
2.8920643e-05
2.6460371e-05
2.5027986e-05
1.1594141e-05
1.0208456e-05
1.3196426e-05
2.5968339e-05
8.2534578e-05
0.00051331461
0.00099991868
0.00099991929
0.0009999198
0.00099991991
0.00099991996
0.00099992006
0.00099992026
0.00099992055
0.00099992087
0.0009999212
0.00099992148
0.00099992174
0.00099992196
0.00099992213
0.00099992227
0.00099992238
0.00099992247
0.00099992254
0.00099992259
0.00099992264
0.00099992267
0.0009999227
0.00099992272
0.00099992274
0.00099992275
0.00099992276
0.00099992277
0.00099992278
0.00099992278
0.00099992279
0.00099992279
0.00099992279
0.00099992279
0.0009999228
0.0009999228
0.0009999228
0.0009999228
0.0009999228
0.0009999228
0.0009999228
0.0009999228
0.0009999228
0.0009999228
0.0009999228
0.0009999228
0.0009999228
0.0009999228
0.0009999228
0.0009999228
0.0009999228
0.0009999228
0.0009999228
0.0009999228
0.0009999228
0.0009999228
0.0009999228
0.0009999228
0.0009999228
0.00099992281
0.00099992316
9.2585465e-07
1.1582387e-06
1.1055775e-06
6.1885828e-06
7.696405e-06
1.2371431e-05
9.9732103e-06
2.5850325e-05
1.2621155e-05
1.1569914e-05
5.4041611e-05
2.781978e-05
2.1292118e-05
2.4594279e-05
1.0568293e-05
8.9187679e-06
1.118469e-05
2.1326545e-05
6.3750959e-05
0.00037395325
0.00099991852
0.00099991914
0.00099991976
0.00099991991
0.00099991996
0.00099992004
0.00099992023
0.00099992049
0.00099992082
0.00099992115
0.00099992145
0.00099992172
0.00099992194
0.00099992212
0.00099992226
0.00099992237
0.00099992246
0.00099992253
0.00099992259
0.00099992263
0.00099992267
0.00099992269
0.00099992272
0.00099992273
0.00099992275
0.00099992276
0.00099992277
0.00099992278
0.00099992278
0.00099992279
0.00099992279
0.00099992279
0.00099992279
0.0009999228
0.0009999228
0.0009999228
0.0009999228
0.0009999228
0.0009999228
0.0009999228
0.0009999228
0.0009999228
0.0009999228
0.0009999228
0.0009999228
0.0009999228
0.0009999228
0.0009999228
0.0009999228
0.0009999228
0.0009999228
0.0009999228
0.0009999228
0.0009999228
0.0009999228
0.0009999228
0.0009999228
0.0009999228
0.00099992281
0.00099992321
7.0256085e-07
8.916687e-07
8.1151976e-07
4.9464486e-06
5.7281512e-06
9.5202986e-06
7.6501205e-06
2.5719996e-05
1.0178171e-05
9.5482601e-06
4.6045226e-05
2.9077174e-05
1.7520523e-05
2.4770848e-05
9.7125325e-06
7.8495518e-06
9.5799586e-06
1.7733282e-05
5.0123442e-05
0.00027947362
0.00099991837
0.00099991899
0.00099991972
0.0009999199
0.00099991995
0.00099992003
0.00099992021
0.00099992047
0.00099992079
0.00099992112
0.00099992143
0.0009999217
0.00099992193
0.00099992211
0.00099992225
0.00099992237
0.00099992246
0.00099992253
0.00099992259
0.00099992263
0.00099992267
0.00099992269
0.00099992272
0.00099992273
0.00099992275
0.00099992276
0.00099992277
0.00099992277
0.00099992278
0.00099992279
0.00099992279
0.00099992279
0.00099992279
0.0009999228
0.0009999228
0.0009999228
0.0009999228
0.0009999228
0.0009999228
0.0009999228
0.0009999228
0.0009999228
0.0009999228
0.0009999228
0.0009999228
0.0009999228
0.0009999228
0.0009999228
0.0009999228
0.0009999228
0.0009999228
0.0009999228
0.0009999228
0.0009999228
0.0009999228
0.0009999228
0.0009999228
0.0009999228
0.00099992281
0.00099992326
5.0592282e-07
6.7347685e-07
5.9649456e-07
3.9416517e-06
4.2731782e-06
7.1974777e-06
5.9800302e-06
2.2356295e-05
8.3866962e-06
8.6645037e-06
3.8500241e-05
3.0261079e-05
1.4783553e-05
2.5336449e-05
8.99692e-06
6.9527471e-06
8.2778425e-06
1.4897715e-05
3.9990827e-05
0.00021326609
0.00099991826
0.00099991881
0.00099991966
0.0009999199
0.00099991994
0.00099992002
0.00099992019
0.00099992045
0.00099992077
0.00099992111
0.00099992142
0.00099992169
0.0009999219
0.00099992209
0.00099992224
0.00099992235
0.00099992245
0.00099992252
0.00099992258
0.00099992263
0.00099992266
0.00099992269
0.00099992272
0.00099992273
0.00099992275
0.00099992276
0.00099992277
0.00099992277
0.00099992278
0.00099992279
0.00099992279
0.00099992279
0.00099992279
0.0009999228
0.0009999228
0.0009999228
0.0009999228
0.0009999228
0.0009999228
0.0009999228
0.0009999228
0.0009999228
0.0009999228
0.0009999228
0.0009999228
0.0009999228
0.0009999228
0.0009999228
0.0009999228
0.0009999228
0.0009999228
0.0009999228
0.0009999228
0.0009999228
0.0009999228
0.0009999228
0.0009999228
0.0009999228
0.00099992281
0.00099992332
3.4760767e-07
5.0358885e-07
4.3117628e-07
2.8406364e-06
3.1385988e-06
5.4258619e-06
4.7060388e-06
1.8170645e-05
7.0192636e-06
7.7168418e-06
3.1766894e-05
3.1467034e-05
1.281611e-05
2.5453977e-05
8.3852252e-06
6.1950376e-06
7.2054e-06
1.2625733e-05
3.2313632e-05
0.00016567003
0.00099991821
0.00099991861
0.00099991959
0.00099991989
0.00099991994
0.00099992002
0.00099992018
0.00099992042
0.00099992073
0.00099992107
0.00099992138
0.00099992166
0.00099992189
0.00099992208
0.00099992223
0.00099992235
0.00099992245
0.00099992252
0.00099992258
0.00099992262
0.00099992266
0.00099992269
0.00099992271
0.00099992273
0.00099992275
0.00099992276
0.00099992277
0.00099992277
0.00099992278
0.00099992279
0.00099992279
0.00099992279
0.00099992279
0.0009999228
0.0009999228
0.0009999228
0.0009999228
0.0009999228
0.0009999228
0.0009999228
0.0009999228
0.0009999228
0.0009999228
0.0009999228
0.0009999228
0.0009999228
0.0009999228
0.0009999228
0.0009999228
0.0009999228
0.0009999228
0.0009999228
0.0009999228
0.0009999228
0.0009999228
0.0009999228
0.0009999228
0.0009999228
0.00099992281
0.00099992337
2.4347294e-07
3.7579872e-07
3.0324739e-07
2.3781545e-06
2.2647561e-06
4.2938135e-06
3.7298275e-06
1.4493605e-05
5.9390038e-06
6.8437119e-06
2.6331728e-05
3.1528934e-05
1.132661e-05
2.4478428e-05
7.8201314e-06
5.5391937e-06
6.3071304e-06
1.0780913e-05
2.6417818e-05
0.00013083841
0.00099991823
0.0009999184
0.00099991952
0.00099991988
0.00099991994
0.00099992001
0.00099992016
0.00099992041
0.00099992072
0.00099992106
0.00099992137
0.00099992165
0.00099992189
0.00099992208
0.00099992223
0.00099992235
0.00099992244
0.00099992252
0.00099992258
0.00099992262
0.00099992266
0.00099992269
0.00099992271
0.00099992273
0.00099992275
0.00099992276
0.00099992277
0.00099992277
0.00099992278
0.00099992279
0.00099992279
0.00099992279
0.00099992279
0.0009999228
0.0009999228
0.0009999228
0.0009999228
0.0009999228
0.0009999228
0.0009999228
0.0009999228
0.0009999228
0.0009999228
0.0009999228
0.0009999228
0.0009999228
0.0009999228
0.0009999228
0.0009999228
0.0009999228
0.0009999228
0.0009999228
0.0009999228
0.0009999228
0.0009999228
0.0009999228
0.0009999228
0.0009999228
0.00099992281
0.00099992344
1.6942545e-07
2.8795339e-07
2.0742108e-07
2.227495e-06
1.6242353e-06
3.41544e-06
2.9875756e-06
1.0772567e-05
5.1144164e-06
5.9482754e-06
2.2081416e-05
2.9184963e-05
1.0080741e-05
2.2632255e-05
7.2730181e-06
4.9561619e-06
5.5420345e-06
9.2647411e-06
2.1888639e-05
0.00010509418
0.00099991835
0.00099991817
0.00099991943
0.00099991987
0.00099991994
0.00099992
0.00099992015
0.0009999204
0.00099992071
0.00099992105
0.00099992137
0.00099992165
0.00099992189
0.00099992208
0.00099992222
0.00099992234
0.00099992244
0.00099992251
0.00099992258
0.00099992262
0.00099992266
0.00099992269
0.00099992271
0.00099992273
0.00099992275
0.00099992276
0.00099992277
0.00099992277
0.00099992278
0.00099992279
0.00099992279
0.00099992279
0.00099992279
0.0009999228
0.0009999228
0.0009999228
0.0009999228
0.0009999228
0.0009999228
0.0009999228
0.0009999228
0.0009999228
0.0009999228
0.0009999228
0.0009999228
0.0009999228
0.0009999228
0.0009999228
0.0009999228
0.0009999228
0.0009999228
0.0009999228
0.0009999228
0.0009999228
0.0009999228
0.0009999228
0.0009999228
0.0009999228
0.00099992281
0.0009999235
1.1620956e-07
2.1995839e-07
1.3672888e-07
3.7281155e-06
1.1880761e-06
3.0079383e-06
2.4230041e-06
9.6469111e-06
4.4514397e-06
5.3114039e-06
1.8683959e-05
2.3620208e-05
8.96626e-06
2.0582242e-05
6.7737535e-06
4.4419871e-06
4.8903687e-06
8.0182589e-06
1.838528e-05
8.6049239e-05
0.00099991858
0.00099991791
0.00099991933
0.00099991985
0.00099991994
0.00099992
0.00099992015
0.0009999204
0.00099992072
0.00099992103
0.00099992135
0.00099992163
0.00099992187
0.00099992206
0.00099992222
0.00099992234
0.00099992244
0.00099992252
0.00099992257
0.00099992262
0.00099992266
0.00099992269
0.00099992271
0.00099992273
0.00099992275
0.00099992276
0.00099992277
0.00099992277
0.00099992278
0.00099992279
0.00099992279
0.00099992279
0.00099992279
0.0009999228
0.0009999228
0.0009999228
0.0009999228
0.0009999228
0.0009999228
0.0009999228
0.0009999228
0.0009999228
0.0009999228
0.0009999228
0.0009999228
0.0009999228
0.0009999228
0.0009999228
0.0009999228
0.0009999228
0.0009999228
0.0009999228
0.0009999228
0.0009999228
0.0009999228
0.0009999228
0.0009999228
0.0009999228
0.00099992281
0.00099992357
6.0399307e-08
1.735468e-07
7.9588374e-08
2.9495142e-06
8.4030454e-07
2.0483919e-06
1.9859455e-06
6.2720081e-06
4.0417113e-06
4.7218605e-06
1.6237695e-05
1.7575805e-05
8.0428226e-06
1.8628208e-05
6.3567289e-06
4.011607e-06
4.3535114e-06
7.020382e-06
1.5847185e-05
7.2178147e-05
0.00083534159
0.00099991765
0.00099991923
0.00099991984
0.00099991994
0.00099992
0.00099992016
0.00099992038
0.00099992069
0.00099992103
0.00099992135
0.00099992164
0.00099992188
0.00099992207
0.00099992222
0.00099992235
0.00099992244
0.00099992252
0.00099992258
0.00099992262
0.00099992266
0.00099992269
0.00099992271
0.00099992273
0.00099992275
0.00099992276
0.00099992277
0.00099992277
0.00099992278
0.00099992279
0.00099992279
0.00099992279
0.00099992279
0.0009999228
0.0009999228
0.0009999228
0.0009999228
0.0009999228
0.0009999228
0.0009999228
0.0009999228
0.0009999228
0.0009999228
0.0009999228
0.0009999228
0.0009999228
0.0009999228
0.0009999228
0.0009999228
0.0009999228
0.0009999228
0.0009999228
0.0009999228
0.0009999228
0.0009999228
0.0009999228
0.0009999228
0.0009999228
0.00099992281
0.00099992365
3.4612575e-08
1.5993482e-07
4.1761835e-08
1.0575091e-06
5.3922891e-07
1.0930666e-06
1.5831716e-06
6.4819082e-06
3.7207568e-06
4.8293918e-06
1.4638574e-05
1.3462821e-05
7.3620028e-06
1.7049277e-05
6.4349736e-06
3.6735905e-06
3.9368502e-06
6.2656399e-06
1.4017028e-05
6.2583158e-05
0.00069691484
0.00099991739
0.00099991914
0.00099991983
0.00099991994
0.00099992001
0.00099992015
0.00099992039
0.0009999207
0.00099992104
0.00099992136
0.00099992165
0.00099992188
0.00099992208
0.00099992223
0.00099992235
0.00099992245
0.00099992252
0.00099992258
0.00099992263
0.00099992266
0.00099992269
0.00099992272
0.00099992273
0.00099992275
0.00099992276
0.00099992277
0.00099992277
0.00099992278
0.00099992279
0.00099992279
0.00099992279
0.00099992279
0.0009999228
0.0009999228
0.0009999228
0.0009999228
0.0009999228
0.0009999228
0.0009999228
0.0009999228
0.0009999228
0.0009999228
0.0009999228
0.0009999228
0.0009999228
0.0009999228
0.0009999228
0.0009999228
0.0009999228
0.0009999228
0.0009999228
0.0009999228
0.0009999228
0.0009999228
0.0009999228
0.0009999228
0.0009999228
0.00099992281
0.00099992372
1.0420729e-07
1.2977213e-07
1.2965131e-07
6.3356878e-07
4.0622786e-07
8.4223884e-07
1.2215555e-06
1.4861274e-05
3.2354687e-06
5.245834e-06
1.3829726e-05
1.105294e-05
7.0034544e-06
1.6090657e-05
5.9434299e-06
3.4243461e-06
3.6319249e-06
5.7452209e-06
1.2802477e-05
5.6763241e-05
0.00062458019
0.00099991717
0.00099991907
0.00099991982
0.00099991994
0.00099992001
0.00099992016
0.0009999204
0.00099992072
0.00099992106
0.00099992138
0.00099992166
0.0009999219
0.00099992209
0.00099992224
0.00099992236
0.00099992245
0.00099992252
0.00099992258
0.00099992263
0.00099992267
0.00099992269
0.00099992272
0.00099992273
0.00099992275
0.00099992276
0.00099992277
0.00099992277
0.00099992278
0.00099992279
0.00099992279
0.00099992279
0.00099992279
0.0009999228
0.0009999228
0.0009999228
0.0009999228
0.0009999228
0.0009999228
0.0009999228
0.0009999228
0.0009999228
0.0009999228
0.0009999228
0.0009999228
0.0009999228
0.0009999228
0.0009999228
0.0009999228
0.0009999228
0.0009999228
0.0009999228
0.0009999228
0.0009999228
0.0009999228
0.0009999228
0.0009999228
0.0009999228
0.00099992281
0.00099992381
1.7491073e-07
7.1927968e-08
3.8136196e-08
2.5990307e-07
3.0491052e-07
6.6025661e-07
9.723104e-07
4.4451686e-06
2.8101661e-06
4.9856794e-06
1.2866101e-05
9.8449383e-06
8.6281389e-06
1.8739518e-05
5.3503852e-06
3.2444134e-06
3.4229261e-06
5.4359278e-06
1.2165923e-05
5.4582829e-05
0.00061423098
0.00099991703
0.00099991904
0.00099991982
0.00099991995
0.00099992002
0.00099992019
0.00099992045
0.00099992075
0.00099992109
0.0009999214
0.00099992168
0.00099992191
0.0009999221
0.00099992225
0.00099992237
0.00099992246
0.00099992253
0.00099992259
0.00099992263
0.00099992267
0.0009999227
0.00099992272
0.00099992273
0.00099992275
0.00099992276
0.00099992277
0.00099992278
0.00099992278
0.00099992279
0.00099992279
0.00099992279
0.00099992279
0.0009999228
0.0009999228
0.0009999228
0.0009999228
0.0009999228
0.0009999228
0.0009999228
0.0009999228
0.0009999228
0.0009999228
0.0009999228
0.0009999228
0.0009999228
0.0009999228
0.0009999228
0.0009999228
0.0009999228
0.0009999228
0.0009999228
0.0009999228
0.0009999228
0.0009999228
0.0009999228
0.0009999228
0.0009999228
0.00099992281
0.00099992389
8.9126093e-08
6.1213371e-08
1.6344364e-08
2.1654589e-07
3.2682669e-07
7.2403632e-07
7.7995306e-07
2.9313781e-06
3.2289192e-06
2.790407e-06
1.0942656e-05
9.0409519e-06
8.837518e-06
1.8037072e-05
5.0687034e-06
3.0884127e-06
3.2938125e-06
5.3225431e-06
1.2098261e-05
5.6255686e-05
0.00067786973
0.00099991698
0.00099991907
0.00099991983
0.00099991995
0.00099992003
0.0009999202
0.00099992047
0.0009999208
0.00099992114
0.00099992145
0.00099992172
0.00099992194
0.00099992212
0.00099992226
0.00099992238
0.00099992247
0.00099992254
0.00099992259
0.00099992263
0.00099992267
0.0009999227
0.00099992272
0.00099992273
0.00099992275
0.00099992276
0.00099992277
0.00099992278
0.00099992278
0.00099992279
0.00099992279
0.00099992279
0.00099992279
0.0009999228
0.0009999228
0.0009999228
0.0009999228
0.0009999228
0.0009999228
0.0009999228
0.0009999228
0.0009999228
0.0009999228
0.0009999228
0.0009999228
0.0009999228
0.0009999228
0.0009999228
0.0009999228
0.0009999228
0.0009999228
0.0009999228
0.0009999228
0.0009999228
0.0009999228
0.0009999228
0.0009999228
0.0009999228
0.00099992281
0.00099992397
7.6530708e-08
3.140823e-08
1.1918272e-08
1.8524835e-07
3.6417096e-07
6.2613347e-07
1.0520145e-06
2.0151134e-06
3.5086813e-06
2.1584835e-06
7.7371359e-06
8.6476022e-06
6.335461e-06
1.3143519e-05
4.8246305e-06
2.956423e-06
3.2421393e-06
5.4001934e-06
1.2827802e-05
6.2416965e-05
0.00085714342
0.00099991706
0.00099991914
0.00099991984
0.00099991996
0.00099992004
0.00099992022
0.0009999205
0.00099992083
0.00099992116
0.00099992147
0.00099992174
0.00099992196
0.00099992213
0.00099992227
0.00099992238
0.00099992247
0.00099992254
0.00099992259
0.00099992264
0.00099992267
0.0009999227
0.00099992272
0.00099992274
0.00099992275
0.00099992276
0.00099992277
0.00099992278
0.00099992278
0.00099992279
0.00099992279
0.00099992279
0.00099992279
0.0009999228
0.0009999228
0.0009999228
0.0009999228
0.0009999228
0.0009999228
0.0009999228
0.0009999228
0.0009999228
0.0009999228
0.0009999228
0.0009999228
0.0009999228
0.0009999228
0.0009999228
0.0009999228
0.0009999228
0.0009999228
0.0009999228
0.0009999228
0.0009999228
0.0009999228
0.0009999228
0.0009999228
0.0009999228
0.00099992281
0.00099992406
3.5782666e-08
6.4005828e-08
7.7913274e-09
2.7368043e-07
3.2573216e-07
3.6327932e-07
9.7394795e-07
1.0826992e-06
3.1078678e-06
2.092591e-06
5.8827292e-06
8.6848555e-06
5.7905342e-06
1.1560731e-05
4.5055559e-06
2.8692378e-06
3.2708804e-06
5.665657e-06
1.4448943e-05
7.4170324e-05
0.00099991671
0.00099991725
0.00099991926
0.00099991987
0.00099991997
0.00099992006
0.00099992025
0.00099992053
0.00099992089
0.00099992122
0.00099992152
0.00099992177
0.00099992198
0.00099992215
0.00099992229
0.0009999224
0.00099992248
0.00099992255
0.0009999226
0.00099992264
0.00099992267
0.0009999227
0.00099992272
0.00099992274
0.00099992275
0.00099992276
0.00099992277
0.00099992278
0.00099992278
0.00099992279
0.00099992279
0.00099992279
0.00099992279
0.0009999228
0.0009999228
0.0009999228
0.0009999228
0.0009999228
0.0009999228
0.0009999228
0.0009999228
0.0009999228
0.0009999228
0.0009999228
0.0009999228
0.0009999228
0.0009999228
0.0009999228
0.0009999228
0.0009999228
0.0009999228
0.0009999228
0.0009999228
0.0009999228
0.0009999228
0.0009999228
0.0009999228
0.0009999228
0.00099992281
0.00099992414
1.9406807e-08
7.4856388e-08
8.4923756e-09
0.0008328382
2.3631953e-07
8.3537824e-07
1.1900435e-06
1.109346e-06
1.8991282e-06
2.6665547e-06
4.7860172e-06
9.8280095e-06
5.4205625e-06
1.0094446e-05
4.2746466e-06
2.8200958e-06
3.3634735e-06
6.0952176e-06
1.6893662e-05
9.2739714e-05
0.00099991621
0.00099991751
0.00099991939
0.00099991989
0.00099991997
0.00099992008
0.00099992028
0.00099992057
0.0009999209
0.00099992123
0.00099992153
0.00099992178
0.00099992199
0.00099992216
0.00099992229
0.0009999224
0.00099992248
0.00099992255
0.0009999226
0.00099992264
0.00099992267
0.0009999227
0.00099992272
0.00099992274
0.00099992275
0.00099992276
0.00099992277
0.00099992278
0.00099992278
0.00099992279
0.00099992279
0.00099992279
0.00099992279
0.0009999228
0.0009999228
0.0009999228
0.0009999228
0.0009999228
0.0009999228
0.0009999228
0.0009999228
0.0009999228
0.0009999228
0.0009999228
0.0009999228
0.0009999228
0.0009999228
0.0009999228
0.0009999228
0.0009999228
0.0009999228
0.0009999228
0.0009999228
0.0009999228
0.0009999228
0.0009999228
0.0009999228
0.0009999228
0.00099992281
0.00099992421
2.8199327e-08
8.6378047e-09
7.9853084e-09
1.456958e-07
3.0146655e-07
0.00090280509
5.6248206e-07
5.0063608e-06
1.5852577e-06
3.3902446e-06
5.3566726e-06
1.162564e-05
5.3203178e-06
8.856943e-06
3.8379204e-06
2.8016043e-06
3.4893134e-06
6.6060639e-06
1.9847722e-05
0.00011698666
0.00099991606
0.00099991777
0.0009999195
0.0009999199
0.00099991998
0.00099992009
0.0009999203
0.00099992059
0.00099992094
0.00099992127
0.00099992156
0.0009999218
0.00099992201
0.00099992217
0.0009999223
0.0009999224
0.00099992249
0.00099992255
0.0009999226
0.00099992264
0.00099992267
0.0009999227
0.00099992272
0.00099992274
0.00099992275
0.00099992276
0.00099992277
0.00099992278
0.00099992278
0.00099992279
0.00099992279
0.00099992279
0.00099992279
0.0009999228
0.0009999228
0.0009999228