/*--------------------------------*- C++ -*----------------------------------*\
| =========                 |                                                 |
| \\      /  F ield         | OpenFOAM: The Open Source CFD Toolbox           |
|  \\    /   O peration     | Version:  2406                                  |
|   \\  /    A nd           | Website:  www.openfoam.com                      |
|    \\/     M anipulation  |                                                 |
\*---------------------------------------------------------------------------*/
FoamFile
{
    version     2.0;
    format      ascii;
    arch        "LSB;label=32;scalar=64";
    class       volScalarField;
    location    "0.00012";
    object      omega;
}
// * * * * * * * * * * * * * * * * * * * * * * * * * * * * * * * * * * * * * //

dimensions      [0 0 -1 0 0 0 0];

internalField   nonuniform List<scalar> 
16000
(
1075.8888
10.190628
10.057217
10.00842
10.014379
10.013796
10.008285
10.008452
10.007235
10.009013
10.007334
10.005545
10.00269
10.000593
9.9996943
9.9995584
9.9996646
9.9997254
9.9997254
9.9997228
9.9997211
9.9997209
9.9997207
9.9997199
9.9997182
9.9997155
9.9997123
9.9997089
9.9997058
9.9997031
9.9997008
9.999699
9.9996975
9.9996964
9.9996955
9.9996948
9.9996942
9.9996937
9.9996934
9.9996931
9.9996929
9.9996927
9.9996926
9.9996925
9.9996924
9.9996923
9.9996922
9.9996922
9.9996922
9.9996921
9.9996921
9.9996921
9.9996921
9.9996921
9.999692
9.999692
9.999692
9.999692
9.999692
9.999692
9.999692
9.999692
9.999692
9.999692
9.999692
9.999692
9.999692
9.999692
9.999692
9.999692
9.999692
9.999692
9.999692
9.999692
9.999692
9.999692
9.999692
9.999692
9.999692
9.999692
1108.8449
10.267387
10.028748
10.007058
10.014124
10.008062
10.011713
10.009193
10.01131
10.012109
10.014034
10.012858
10.011735
10.006669
10.002888
10.000104
9.9995772
9.9996735
9.9997211
9.9997248
9.9997223
9.9997211
9.9997208
9.9997201
9.9997187
9.9997162
9.9997131
9.9997098
9.9997065
9.9997037
9.9997013
9.9996994
9.9996979
9.9996967
9.9996957
9.9996949
9.9996943
9.9996939
9.9996935
9.9996932
9.9996929
9.9996928
9.9996926
9.9996925
9.9996924
9.9996923
9.9996923
9.9996922
9.9996922
9.9996921
9.9996921
9.9996921
9.9996921
9.9996921
9.999692
9.999692
9.999692
9.999692
9.999692
9.999692
9.999692
9.999692
9.999692
9.999692
9.999692
9.999692
9.999692
9.999692
9.999692
9.999692
9.999692
9.999692
9.999692
9.999692
9.999692
9.999692
9.999692
9.999692
9.999692
9.999692
1140.7029
10.666705
10.012098
10.025822
10.017077
10.005199
10.013688
10.010108
10.016865
10.015523
10.021208
10.021039
10.022739
10.01701
10.010371
10.003048
9.9999215
9.9996237
9.9997105
9.9997267
9.9997237
9.9997215
9.9997209
9.9997203
9.9997191
9.9997168
9.9997139
9.9997105
9.9997072
9.9997043
9.9997019
9.9996998
9.9996982
9.9996969
9.9996959
9.9996951
9.9996945
9.999694
9.9996936
9.9996932
9.999693
9.9996928
9.9996926
9.9996925
9.9996924
9.9996923
9.9996923
9.9996922
9.9996922
9.9996921
9.9996921
9.9996921
9.9996921
9.9996921
9.999692
9.999692
9.999692
9.999692
9.999692
9.999692
9.999692
9.999692
9.999692
9.999692
9.999692
9.999692
9.999692
9.999692
9.999692
9.999692
9.999692
9.999692
9.999692
9.999692
9.999692
9.999692
9.999692
9.999692
9.999692
9.9996921
1170.599
12.954635
9.9990014
10.053437
10.020807
10.00629
10.015784
10.013366
10.022423
10.019162
10.02848
10.028599
10.031762
10.027087
10.018327
10.007815
10.00125
9.9996396
9.9996931
9.999729
9.9997255
9.999722
9.9997209
9.9997204
9.9997194
9.9997173
9.9997145
9.9997112
9.9997079
9.9997049
9.9997023
9.9997002
9.9996985
9.9996972
9.9996961
9.9996953
9.9996946
9.9996941
9.9996936
9.9996933
9.999693
9.9996928
9.9996927
9.9996925
9.9996924
9.9996923
9.9996923
9.9996922
9.9996922
9.9996921
9.9996921
9.9996921
9.9996921
9.9996921
9.999692
9.999692
9.999692
9.999692
9.999692
9.999692
9.999692
9.999692
9.999692
9.999692
9.999692
9.999692
9.999692
9.999692
9.999692
9.999692
9.999692
9.999692
9.999692
9.999692
9.999692
9.999692
9.999692
9.999692
9.999692
9.9996921
1198.7608
16.944449
9.9895334
10.088783
10.020035
10.011013
10.021872
10.019825
10.027839
10.022957
10.035833
10.036169
10.040713
10.037571
10.027163
10.013205
10.003884
9.9998429
9.9996678
9.9997308
9.9997277
9.9997228
9.999721
9.9997205
9.9997196
9.9997178
9.999715
9.9997118
9.9997085
9.9997054
9.9997028
9.9997006
9.9996988
9.9996974
9.9996963
9.9996954
9.9996947
9.9996941
9.9996937
9.9996934
9.9996931
9.9996929
9.9996927
9.9996926
9.9996925
9.9996924
9.9996923
9.9996922
9.9996922
9.9996922
9.9996921
9.9996921
9.9996921
9.9996921
9.999692
9.999692
9.999692
9.999692
9.999692
9.999692
9.999692
9.999692
9.999692
9.999692
9.999692
9.999692
9.999692
9.999692
9.999692
9.999692
9.999692
9.999692
9.999692
9.999692
9.999692
9.999692
9.999692
9.999692
9.999692
9.9996921
1224.6996
22.501392
9.9814641
10.127825
10.020549
10.016523
10.032883
10.02736
10.033781
10.027579
10.043853
10.04389
10.049991
10.048245
10.036978
10.019388
10.007021
10.000426
9.9996393
9.9997311
9.9997303
9.9997239
9.9997212
9.9997206
9.9997198
9.9997181
9.9997155
9.9997123
9.999709
9.9997059
9.9997032
9.9997009
9.9996991
9.9996976
9.9996965
9.9996955
9.9996948
9.9996942
9.9996938
9.9996934
9.9996931
9.9996929
9.9996927
9.9996926
9.9996925
9.9996924
9.9996923
9.9996922
9.9996922
9.9996922
9.9996921
9.9996921
9.9996921
9.9996921
9.9996921
9.999692
9.999692
9.999692
9.999692
9.999692
9.999692
9.999692
9.999692
9.999692
9.999692
9.999692
9.999692
9.999692
9.999692
9.999692
9.999692
9.999692
9.999692
9.999692
9.999692
9.999692
9.999692
9.999692
9.999692
9.9996922
1248.4676
29.611154
9.9682774
10.171441
10.023504
10.025776
10.047839
10.035184
10.040405
10.032954
10.051982
10.052283
10.059828
10.05942
10.047816
10.026419
10.010676
10.001664
9.9996208
9.9997292
9.9997332
9.9997253
9.9997214
9.9997207
9.99972
9.9997186
9.9997162
9.9997131
9.9997098
9.9997066
9.9997038
9.9997014
9.9996995
9.9996979
9.9996967
9.9996957
9.999695
9.9996944
9.9996939
9.9996935
9.9996932
9.9996929
9.9996928
9.9996926
9.9996925
9.9996924
9.9996923
9.9996923
9.9996922
9.9996922
9.9996921
9.9996921
9.9996921
9.9996921
9.9996921
9.999692
9.999692
9.999692
9.999692
9.999692
9.999692
9.999692
9.999692
9.999692
9.999692
9.999692
9.999692
9.999692
9.999692
9.999692
9.999692
9.999692
9.999692
9.999692
9.999692
9.999692
9.999692
9.999692
9.999692
9.9996922
1269.8437
39.069652
9.9512888
10.216363
10.027931
10.035365
10.067876
10.043625
10.047937
10.039505
10.059678
10.06184
10.070496
10.071265
10.059662
10.034323
10.014949
10.003401
9.9996383
9.9997245
9.9997364
9.999727
9.9997217
9.9997208
9.9997202
9.9997189
9.9997166
9.9997136
9.9997103
9.999707
9.9997042
9.9997017
9.9996997
9.9996981
9.9996969
9.9996959
9.9996951
9.9996944
9.9996939
9.9996935
9.9996932
9.999693
9.9996928
9.9996926
9.9996925
9.9996924
9.9996923
9.9996923
9.9996922
9.9996922
9.9996921
9.9996921
9.9996921
9.9996921
9.9996921
9.999692
9.999692
9.999692
9.999692
9.999692
9.999692
9.999692
9.999692
9.999692
9.999692
9.999692
9.999692
9.999692
9.999692
9.999692
9.999692
9.999692
9.999692
9.999692
9.999692
9.999692
9.999692
9.999692
9.999692
9.9996922
1288.9723
51.055593
9.9214868
10.268104
10.034731
10.038574
10.093014
10.048372
10.058395
10.047194
10.067857
10.072076
10.081163
10.084616
10.072495
10.043186
10.01989
10.005417
9.999736
9.9997168
9.9997398
9.9997291
9.9997221
9.9997208
9.9997203
9.9997191
9.9997169
9.999714
9.9997107
9.9997074
9.9997045
9.999702
9.9997
9.9996983
9.999697
9.999696
9.9996952
9.9996945
9.999694
9.9996936
9.9996933
9.999693
9.9996928
9.9996926
9.9996925
9.9996924
9.9996923
9.9996923
9.9996922
9.9996922
9.9996921
9.9996921
9.9996921
9.9996921
9.9996921
9.999692
9.999692
9.999692
9.999692
9.999692
9.999692
9.999692
9.999692
9.999692
9.999692
9.999692
9.999692
9.999692
9.999692
9.999692
9.999692
9.999692
9.999692
9.999692
9.999692
9.999692
9.999692
9.999692
9.999692
9.9996923
1305.8608
66.014649
9.8857024
10.3321
10.042551
10.038648
10.120978
10.052978
10.069856
10.056802
10.0768
10.083133
10.093663
10.098986
10.086228
10.053074
10.025541
10.007776
9.9999825
9.9997067
9.9997433
9.9997315
9.9997226
9.9997209
9.9997204
9.9997193
9.9997172
9.9997143
9.999711
9.9997078
9.9997048
9.9997023
9.9997002
9.9996985
9.9996971
9.9996961
9.9996952
9.9996946
9.999694
9.9996936
9.9996933
9.999693
9.9996928
9.9996927
9.9996925
9.9996924
9.9996923
9.9996923
9.9996922
9.9996922
9.9996921
9.9996921
9.9996921
9.9996921
9.9996921
9.999692
9.999692
9.999692
9.999692
9.999692
9.999692
9.999692
9.999692
9.999692
9.999692
9.999692
9.999692
9.999692
9.999692
9.999692
9.999692
9.999692
9.999692
9.999692
9.999692
9.999692
9.999692
9.999692
9.999692
9.9996923
1320.1445
85.570747
9.8641969
10.405255
10.05264
10.034069
10.155372
10.055982
10.083503
10.067966
10.086203
10.094655
10.107042
10.114359
10.10113
10.064091
10.031963
10.010521
10.00048
9.9996961
9.9997468
9.9997342
9.9997232
9.9997209
9.9997204
9.9997194
9.9997174
9.9997146
9.9997113
9.999708
9.9997052
9.9997026
9.9997005
9.9996987
9.9996973
9.9996962
9.9996954
9.9996947
9.9996941
9.9996937
9.9996933
9.9996931
9.9996928
9.9996927
9.9996925
9.9996924
9.9996923
9.9996923
9.9996922
9.9996922
9.9996921
9.9996921
9.9996921
9.9996921
9.9996921
9.999692
9.999692
9.999692
9.999692
9.999692
9.999692
9.999692
9.999692
9.999692
9.999692
9.999692
9.999692
9.999692
9.999692
9.999692
9.999692
9.999692
9.999692
9.999692
9.999692
9.999692
9.999692
9.999692
9.999692
9.9996923
1331.3739
111.86433
9.8600319
10.49386
10.065903
10.022095
10.198975
10.05701
10.099995
10.080307
10.096024
10.106437
10.121622
10.130651
10.117545
10.076364
10.039242
10.013696
10.001335
9.9996885
9.9997502
9.9997373
9.999724
9.999721
9.9997204
9.9997196
9.9997178
9.9997151
9.9997119
9.9997086
9.9997055
9.9997029
9.9997007
9.9996989
9.9996974
9.9996963
9.9996954
9.9996947
9.9996942
9.9996937
9.9996934
9.9996931
9.9996929
9.9996927
9.9996926
9.9996924
9.9996924
9.9996923
9.9996922
9.9996922
9.9996921
9.9996921
9.9996921
9.9996921
9.9996921
9.999692
9.999692
9.999692
9.999692
9.999692
9.999692
9.999692
9.999692
9.999692
9.999692
9.999692
9.999692
9.999692
9.999692
9.999692
9.999692
9.999692
9.999692
9.999692
9.999692
9.999692
9.999692
9.999692
9.999692
9.9996924
1340.0499
145.53048
9.8405684
10.596426
10.081558
10.014263
10.251303
10.054437
10.119429
10.094318
10.106731
10.118642
10.137721
10.147062
10.135751
10.090022
10.047471
10.017357
10.002408
9.9996901
9.9997532
9.9997406
9.999725
9.9997211
9.9997205
9.9997197
9.999718
9.9997153
9.9997121
9.9997088
9.9997057
9.999703
9.9997008
9.999699
9.9996975
9.9996964
9.9996955
9.9996947
9.9996942
9.9996937
9.9996934
9.9996931
9.9996929
9.9996927
9.9996926
9.9996925
9.9996924
9.9996923
9.9996922
9.9996922
9.9996921
9.9996921
9.9996921
9.9996921
9.9996921
9.999692
9.999692
9.999692
9.999692
9.999692
9.999692
9.999692
9.999692
9.999692
9.999692
9.999692
9.999692
9.999692
9.999692
9.999692
9.999692
9.999692
9.999692
9.999692
9.999692
9.999692
9.999692
9.999692
9.999692
9.9996924
1346.6237
187.28407
9.8041881
10.726717
10.105027
10.00937
10.313128
10.051448
10.14219
10.108827
10.11849
10.131109
10.15527
10.164178
10.155635
10.105215
10.056755
10.021562
10.00369
9.9997109
9.9997556
9.9997444
9.9997262
9.9997213
9.9997205
9.9997198
9.9997181
9.9997155
9.9997123
9.999709
9.9997058
9.9997031
9.999701
9.9996992
9.9996977
9.9996965
9.9996956
9.9996948
9.9996942
9.9996938
9.9996934
9.9996931
9.9996929
9.9996927
9.9996926
9.9996925
9.9996924
9.9996923
9.9996922
9.9996922
9.9996921
9.9996921
9.9996921
9.9996921
9.9996921
9.999692
9.999692
9.999692
9.999692
9.999692
9.999692
9.999692
9.999692
9.999692
9.999692
9.999692
9.999692
9.999692
9.999692
9.999692
9.999692
9.999692
9.999692
9.999692
9.999692
9.999692
9.999692
9.999692
9.999692
9.9996925
1350.1063
242.21935
9.7538057
10.889075
10.141267
10.003214
10.387834
10.046234
10.169145
10.123279
10.131643
10.143618
10.174359
10.182671
10.177225
10.122079
10.067208
10.026376
10.005212
9.9997659
9.9997573
9.9997485
9.9997277
9.9997214
9.9997205
9.9997198
9.9997182
9.9997158
9.9997127
9.9997094
9.9997062
9.9997034
9.9997011
9.9996992
9.9996977
9.9996965
9.9996956
9.9996948
9.9996943
9.9996938
9.9996934
9.9996931
9.9996929
9.9996927
9.9996926
9.9996925
9.9996924
9.9996923
9.9996922
9.9996922
9.9996921
9.9996921
9.9996921
9.9996921
9.9996921
9.999692
9.999692
9.999692
9.999692
9.999692
9.999692
9.999692
9.999692
9.999692
9.999692
9.999692
9.999692
9.999692
9.999692
9.999692
9.999692
9.999692
9.999692
9.999692
9.999692
9.999692
9.999692
9.999692
9.999692
9.9996925
1349.588
318.1885
9.7095644
11.056656
10.19628
9.9873187
10.479073
10.036722
10.201412
10.138001
10.146386
10.156563
10.195302
10.203177
10.200904
10.140845
10.078967
10.031862
10.007003
9.999877
9.9997582
9.999753
9.9997293
9.9997216
9.9997206
9.9997199
9.9997184
9.999716
9.9997128
9.9997095
9.9997063
9.9997035
9.9997012
9.9996993
9.9996977
9.9996965
9.9996956
9.9996948
9.9996943
9.9996938
9.9996934
9.9996931
9.9996929
9.9996927
9.9996926
9.9996925
9.9996924
9.9996923
9.9996922
9.9996922
9.9996922
9.9996921
9.9996921
9.9996921
9.9996921
9.999692
9.999692
9.999692
9.999692
9.999692
9.999692
9.999692
9.999692
9.999692
9.999692
9.999692
9.999692
9.999692
9.999692
9.999692
9.999692
9.999692
9.999692
9.999692
9.999692
9.999692
9.999692
9.999692
9.999692
9.9996926
1345.3492
423.5798
9.7101862
11.210885
10.277251
9.9808297
10.585672
10.031551
10.238338
10.154424
10.163728
10.171441
10.219132
10.226539
10.227371
10.161888
10.092202
10.038084
10.009073
10.000071
9.9997585
9.999758
9.9997312
9.9997219
9.9997206
9.99972
9.9997185
9.999716
9.9997129
9.9997095
9.9997063
9.9997035
9.9997012
9.9996993
9.9996979
9.9996966
9.9996957
9.9996949
9.9996943
9.9996938
9.9996934
9.9996931
9.9996929
9.9996927
9.9996926
9.9996925
9.9996924
9.9996923
9.9996922
9.9996922
9.9996922
9.9996921
9.9996921
9.9996921
9.9996921
9.999692
9.999692
9.999692
9.999692
9.999692
9.999692
9.999692
9.999692
9.999692
9.999692
9.999692
9.999692
9.999692
9.999692
9.999692
9.999692
9.999692
9.999692
9.999692
9.999692
9.999692
9.999692
9.999692
9.999692
9.9996927
1336.4473
572.34906
9.8129056
11.227397
10.391865
9.9379999
10.711901
10.009293
10.281965
10.171433
10.185747
10.189766
10.247138
10.253412
10.257129
10.185505
10.106996
10.045032
10.0114
10.000376
9.9997587
9.9997633
9.9997333
9.9997221
9.9997206
9.99972
9.9997185
9.999716
9.9997129
9.9997098
9.9997066
9.9997037
9.9997013
9.9996994
9.9996978
9.9996966
9.9996957
9.9996949
9.9996943
9.9996938
9.9996934
9.9996931
9.9996929
9.9996927
9.9996926
9.9996925
9.9996924
9.9996923
9.9996922
9.9996922
9.9996922
9.9996921
9.9996921
9.9996921
9.9996921
9.999692
9.999692
9.999692
9.999692
9.999692
9.999692
9.999692
9.999692
9.999692
9.999692
9.999692
9.999692
9.999692
9.999692
9.999692
9.999692
9.999692
9.999692
9.999692
9.999692
9.999692
9.999692
9.999692
9.999692
9.9996927
1319.2617
793.12728
10.100986
11.386821
10.575283
9.9492747
10.848109
10.00199
10.327552
10.192042
10.211884
10.211251
10.278739
10.283564
10.289518
10.21126
10.122955
10.052473
10.013885
10.0008
9.9997595
9.9997688
9.9997354
9.9997224
9.9997205
9.99972
9.9997185
9.9997162
9.9997131
9.9997097
9.9997065
9.9997037
9.9997013
9.9996994
9.9996978
9.9996966
9.9996956
9.9996949
9.9996943
9.9996938
9.9996934
9.9996931
9.9996929
9.9996927
9.9996926
9.9996925
9.9996924
9.9996923
9.9996922
9.9996922
9.9996922
9.9996921
9.9996921
9.9996921
9.9996921
9.999692
9.999692
9.999692
9.999692
9.999692
9.999692
9.999692
9.999692
9.999692
9.999692
9.999692
9.999692
9.999692
9.999692
9.999692
9.999692
9.999692
9.999692
9.999692
9.999692
9.999692
9.999692
9.999692
9.999692
9.9996928
1282.3894
1171.8212
10.732396
11.471622
10.870108
10.031795
11.019462
9.9252365
10.387941
10.199332
10.24234
10.233453
10.309829
10.31388
10.322408
10.237275
10.13884
10.059825
10.016301
10.001254
9.9997614
9.9997741
9.9997374
9.9997226
9.9997205
9.9997199
9.9997186
9.9997161
9.999713
9.9997096
9.9997064
9.9997036
9.9997012
9.9996993
9.9996977
9.9996965
9.9996956
9.9996948
9.9996943
9.9996938
9.9996934
9.9996931
9.9996929
9.9996927
9.9996926
9.9996925
9.9996924
9.9996923
9.9996922
9.9996922
9.9996921
9.9996921
9.9996921
9.9996921
9.9996921
9.999692
9.999692
9.999692
9.999692
9.999692
9.999692
9.999692
9.999692
9.999692
9.999692
9.999692
9.999692
9.999692
9.999692
9.999692
9.999692
9.999692
9.999692
9.999692
9.999692
9.999692
9.999692
9.999692
9.999692
9.9996929
1227.1219
1661.6955
9.9403633
11.456008
11.262098
9.8622539
11.308545
9.7875638
10.480971
10.185207
10.27242
10.24631
10.331139
10.340578
10.352909
10.26067
10.153035
10.066155
10.018269
10.001609
9.9997648
9.9997786
9.9997388
9.9997228
9.9997205
9.9997199
9.9997185
9.999716
9.9997128
9.9997094
9.9997062
9.9997034
9.9997011
9.9996992
9.9996977
9.9996965
9.9996955
9.9996948
9.9996942
9.9996938
9.9996934
9.9996931
9.9996929
9.9996927
9.9996926
9.9996925
9.9996924
9.9996923
9.9996922
9.9996922
9.9996921
9.9996921
9.9996921
9.9996921
9.9996921
9.999692
9.999692
9.999692
9.999692
9.999692
9.999692
9.999692
9.999692
9.999692
9.999692
9.999692
9.999692
9.999692
9.999692
9.999692
9.999692
9.999692
9.999692
9.999692
9.999692
9.999692
9.999692
9.999692
9.999692
9.999693
1195.3352
1848.203
8.4386586
11.439425
11.661795
9.7620739
11.648558
9.732565
10.571834
10.151931
10.294845
10.255888
10.330339
10.370238
10.377867
10.279521
10.163735
10.070407
10.019342
10.00177
9.9997701
9.9997816
9.9997394
9.9997228
9.9997204
9.9997198
9.9997182
9.9997156
9.9997126
9.9997092
9.999706
9.9997032
9.9997009
9.9996991
9.9996976
9.9996963
9.9996954
9.9996947
9.9996942
9.9996937
9.9996934
9.9996931
9.9996929
9.9996927
9.9996926
9.9996924
9.9996924
9.9996923
9.9996922
9.9996922
9.9996921
9.9996921
9.9996921
9.9996921
9.9996921
9.999692
9.999692
9.999692
9.999692
9.999692
9.999692
9.999692
9.999692
9.999692
9.999692
9.999692
9.999692
9.999692
9.999692
9.999692
9.999692
9.999692
9.999692
9.999692
9.999692
9.999692
9.999692
9.999692
9.999692
9.9996931
1194.8358
1507.218
7.1744131
11.3506
12.067052
9.5467654
11.895135
9.7431927
10.601109
10.186445
10.279007
10.280857
10.357118
10.399163
10.39745
10.292532
10.169359
10.07167
10.019141
10.001667
9.9997774
9.9997823
9.9997389
9.9997226
9.9997204
9.9997197
9.999718
9.9997153
9.9997121
9.9997087
9.9997056
9.9997029
9.9997006
9.9996988
9.9996974
9.9996963
9.9996954
9.9996947
9.9996941
9.9996937
9.9996933
9.9996931
9.9996929
9.9996927
9.9996926
9.9996924
9.9996924
9.9996923
9.9996922
9.9996922
9.9996921
9.9996921
9.9996921
9.9996921
9.9996921
9.999692
9.999692
9.999692
9.999692
9.999692
9.999692
9.999692
9.999692
9.999692
9.999692
9.999692
9.999692
9.999692
9.999692
9.999692
9.999692
9.999692
9.999692
9.999692
9.999692
9.999692
9.999692
9.999692
9.999692
9.9996931
1210.7425
1113.731
7.389187
12.215131
12.192404
9.4889414
11.866013
9.8515
10.651056
10.310058
10.314953
10.312323
10.412071
10.425962
10.412785
10.298062
10.168766
10.06949
10.017569
10.001304
9.9997858
9.9997806
9.9997371
9.9997223
9.9997203
9.9997196
9.9997178
9.9997151
9.9997118
9.9997084
9.9997053
9.9997027
9.9997005
9.9996987
9.9996973
9.9996962
9.9996953
9.9996946
9.9996941
9.9996937
9.9996933
9.999693
9.9996928
9.9996927
9.9996925
9.9996924
9.9996924
9.9996923
9.9996922
9.9996922
9.9996921
9.9996921
9.9996921
9.9996921
9.9996921
9.999692
9.999692
9.999692
9.999692
9.999692
9.999692
9.999692
9.999692
9.999692
9.999692
9.999692
9.999692
9.999692
9.999692
9.999692
9.999692
9.999692
9.999692
9.999692
9.999692
9.999692
9.999692
9.999692
9.999692
9.9996932
1202.1175
734.36116
7.8986964
14.137796
12.860986
9.6711205
12.12696
10.104738
10.795912
10.400336
10.39983
10.349897
10.449309
10.448824
10.420452
10.294665
10.161878
10.064316
10.015007
10.000781
9.999794
9.9997765
9.9997346
9.9997219
9.9997202
9.9997194
9.9997176
9.9997147
9.9997112
9.9997079
9.9997049
9.9997023
9.9997002
9.9996985
9.9996971
9.9996961
9.9996952
9.9996946
9.999694
9.9996936
9.9996933
9.999693
9.9996928
9.9996927
9.9996925
9.9996924
9.9996923
9.9996923
9.9996922
9.9996922
9.9996921
9.9996921
9.9996921
9.9996921
9.9996921
9.999692
9.999692
9.999692
9.999692
9.999692
9.999692
9.999692
9.999692
9.999692
9.999692
9.999692
9.999692
9.999692
9.999692
9.999692
9.999692
9.999692
9.999692
9.999692
9.999692
9.999692
9.999692
9.999692
9.999692
9.9996933
1158.7133
568.26835
7.0484329
13.590993
14.050372
9.3070215
12.431993
10.070162
10.919277
10.416984
10.447033
10.382873
10.472393
10.461533
10.419746
10.28391
10.150625
10.05743
10.012116
10.000315
9.9997995
9.9997711
9.9997318
9.9997215
9.9997202
9.9997192
9.9997172
9.9997143
9.999711
9.9997077
9.9997048
9.9997022
9.9997001
9.9996985
9.9996971
9.9996961
9.9996952
9.9996946
9.999694
9.9996936
9.9996933
9.999693
9.9996928
9.9996927
9.9996925
9.9996924
9.9996923
9.9996923
9.9996922
9.9996922
9.9996921
9.9996921
9.9996921
9.9996921
9.9996921
9.999692
9.999692
9.999692
9.999692
9.999692
9.999692
9.999692
9.999692
9.999692
9.999692
9.999692
9.999692
9.999692
9.999692
9.999692
9.999692
9.999692
9.999692
9.999692
9.999692
9.999692
9.999692
9.999692
9.999692
9.9996934
1195.7881
473.76204
9.0900125
13.009237
15.603812
8.537367
12.634771
9.8970547
10.882545
10.42512
10.471472
10.409675
10.483001
10.466907
10.413365
10.270128
10.138471
10.050702
10.009633
10.000044
9.9998008
9.9997656
9.9997294
9.9997212
9.9997201
9.9997191
9.9997171
9.9997142
9.9997106
9.9997074
9.9997045
9.999702
9.9997
9.9996983
9.999697
9.999696
9.9996952
9.9996945
9.999694
9.9996936
9.9996933
9.999693
9.9996928
9.9996927
9.9996925
9.9996924
9.9996924
9.9996923
9.9996922
9.9996922
9.9996921
9.9996921
9.9996921
9.9996921
9.9996921
9.999692
9.999692
9.999692
9.999692
9.999692
9.999692
9.999692
9.999692
9.999692
9.999692
9.999692
9.999692
9.999692
9.999692
9.999692
9.999692
9.999692
9.999692
9.999692
9.999692
9.999692
9.999692
9.999692
9.999692
9.9996934
1197.1681
883.27374
12.340747
12.347462
16.324905
9.0925513
12.512628
10.186215
10.784983
10.426789
10.445361
10.424768
10.485633
10.463063
10.407655
10.258657
10.129748
10.046118
10.008132
9.9999308
9.9997997
9.9997616
9.999728
9.999721
9.9997201
9.999719
9.9997169
9.999714
9.9997108
9.9997075
9.9997046
9.9997021
9.9997001
9.9996984
9.9996971
9.9996961
9.9996952
9.9996946
9.9996941
9.9996937
9.9996933
9.999693
9.9996928
9.9996927
9.9996925
9.9996924
9.9996924
9.9996923
9.9996922
9.9996922
9.9996922
9.9996921
9.9996921
9.9996921
9.9996921
9.9996921
9.999692
9.999692
9.999692
9.999692
9.999692
9.999692
9.999692
9.999692
9.999692
9.999692
9.999692
9.999692
9.999692
9.999692
9.999692
9.999692
9.999692
9.999692
9.999692
9.999692
9.999692
9.999692
9.999692
9.9996935
1097.7123
1321.0275
11.216109
12.305099
14.351491
11.188954
11.931735
10.736003
10.598071
10.393534
10.456488
10.419926
10.490267
10.450062
10.409934
10.255452
10.128549
10.045487
10.008049
9.9999284
9.9997985
9.999761
9.999728
9.999721
9.9997201
9.999719
9.9997169
9.9997141
9.9997108
9.9997076
9.9997047
9.9997022
9.9997002
9.9996985
9.9996972
9.9996961
9.9996953
9.9996946
9.9996941
9.9996937
9.9996934
9.9996931
9.9996929
9.9996927
9.9996926
9.9996925
9.9996924
9.9996923
9.9996922
9.9996922
9.9996922
9.9996921
9.9996921
9.9996921
9.9996921
9.9996921
9.999692
9.999692
9.999692
9.999692
9.999692
9.999692
9.999692
9.999692
9.999692
9.999692
9.999692
9.999692
9.999692
9.999692
9.999692
9.999692
9.999692
9.999692
9.999692
9.999692
9.999692
9.999692
9.999692
9.9996935
1052.6421
1274.5357
8.392812
10.915282
12.906385
10.108373
11.26429
10.469048
10.494878
10.341065
10.465016
10.385321
10.499693
10.431733
10.4213
10.265865
10.138959
10.051217
10.010496
10.00015
9.9997902
9.9997654
9.9997307
9.9997214
9.9997202
9.9997193
9.9997175
9.9997147
9.9997115
9.9997083
9.9997053
9.9997027
9.9997006
9.9996989
9.9996975
9.9996964
9.9996955
9.9996948
9.9996942
9.9996938
9.9996934
9.9996931
9.9996929
9.9996927
9.9996926
9.9996925
9.9996924
9.9996923
9.9996923
9.9996922
9.9996922
9.9996921
9.9996921
9.9996921
9.9996921
9.9996921
9.999692
9.999692
9.999692
9.999692
9.999692
9.999692
9.999692
9.999692
9.999692
9.999692
9.999692
9.999692
9.999692
9.999692
9.999692
9.999692
9.999692
9.999692
9.999692
9.999692
9.999692
9.999692
9.999692
9.9996935
1055.9332
10.35203
11.102478
9.909118
10.012236
10.21393
9.979169
10.121733
10.020564
10.067903
10.120087
10.17383
10.186284
10.137643
10.072769
10.026342
10.004356
9.9999504
9.9996963
9.9997035
9.9997174
9.9997207
9.9997205
9.9997191
9.9997171
9.9997141
9.9997108
9.9997075
9.9997045
9.999702
9.9996999
9.9996983
9.999697
9.9996959
9.9996951
9.9996945
9.999694
9.9996936
9.9996932
9.999693
9.9996928
9.9996926
9.9996925
9.9996924
9.9996923
9.9996923
9.9996922
9.9996922
9.9996921
9.9996921
9.9996921
9.9996921
9.9996921
9.999692
9.999692
9.999692
9.999692
9.999692
9.999692
9.999692
9.999692
9.999692
9.999692
9.999692
9.999692
9.999692
9.999692
9.999692
9.999692
9.999692
9.999692
9.999692
9.999692
9.999692
9.999692
9.999692
9.999692
9.999692
9.999692
9.999692
1060.4952
9.5256753
11.028198
9.8489175
10.029471
10.065868
10.024333
10.040888
10.041458
10.060248
10.126046
10.167745
10.192593
10.14167
10.078723
10.029877
10.005821
10.000065
9.9996965
9.9997005
9.9997162
9.9997205
9.9997205
9.9997192
9.9997171
9.9997142
9.9997108
9.9997075
9.9997046
9.999702
9.9997
9.9996983
9.999697
9.9996959
9.9996951
9.9996945
9.999694
9.9996936
9.9996932
9.999693
9.9996928
9.9996926
9.9996925
9.9996924
9.9996923
9.9996923
9.9996922
9.9996922
9.9996921
9.9996921
9.9996921
9.9996921
9.9996921
9.999692
9.999692
9.999692
9.999692
9.999692
9.999692
9.999692
9.999692
9.999692
9.999692
9.999692
9.999692
9.999692
9.999692
9.999692
9.999692
9.999692
9.999692
9.999692
9.999692
9.999692
9.999692
9.999692
9.999692
9.999692
9.999692
9.999692
1063.3314
9.4638577
10.985764
9.937254
9.9631899
10.17857
9.9727426
10.081648
10.016415
10.057709
10.119286
10.168936
10.195174
10.141001
10.078002
10.029553
10.005811
10.000076
9.9996984
9.9997008
9.9997161
9.9997204
9.9997205
9.9997192
9.999717
9.9997142
9.9997109
9.9997076
9.9997046
9.9997021
9.9997
9.9996983
9.999697
9.999696
9.9996951
9.9996945
9.999694
9.9996936
9.9996933
9.999693
9.9996928
9.9996926
9.9996925
9.9996924
9.9996923
9.9996923
9.9996922
9.9996922
9.9996921
9.9996921
9.9996921
9.9996921
9.9996921
9.999692
9.999692
9.999692
9.999692
9.999692
9.999692
9.999692
9.999692
9.999692
9.999692
9.999692
9.999692
9.999692
9.999692
9.999692
9.999692
9.999692
9.999692
9.999692
9.999692
9.999692
9.999692
9.999692
9.999692
9.999692
9.999692
9.999692
1063.9414
9.4784573
10.952849
9.881534
10.014395
10.087283
9.9947548
10.044383
10.029116
10.059453
10.123875
10.170458
10.189825
10.137838
10.076381
10.029024
10.005717
10.000074
9.9996995
9.9997014
9.9997162
9.9997204
9.9997205
9.9997192
9.999717
9.999714
9.9997109
9.9997076
9.9997047
9.9997021
9.9997
9.9996984
9.999697
9.999696
9.9996952
9.9996945
9.999694
9.9996936
9.9996933
9.999693
9.9996928
9.9996926
9.9996925
9.9996924
9.9996923
9.9996923
9.9996922
9.9996922
9.9996921
9.9996921
9.9996921
9.9996921
9.9996921
9.999692
9.999692
9.999692
9.999692
9.999692
9.999692
9.999692
9.999692
9.999692
9.999692
9.999692
9.999692
9.999692
9.999692
9.999692
9.999692
9.999692
9.999692
9.999692
9.999692
9.999692
9.999692
9.999692
9.999692
9.999692
9.999692
9.999692
1065.01
9.4909712
10.924757
9.888328
10.01755
10.089681
9.991805
10.046123
10.029239
10.057359
10.120567
10.165198
10.184647
10.134537
10.074799
10.028506
10.005632
10.000074
9.9997005
9.9997018
9.9997162
9.9997204
9.9997205
9.9997193
9.9997171
9.9997141
9.999711
9.9997077
9.9997047
9.9997022
9.9997001
9.9996984
9.9996971
9.999696
9.9996952
9.9996945
9.999694
9.9996936
9.9996933
9.999693
9.9996928
9.9996926
9.9996925
9.9996924
9.9996923
9.9996923
9.9996922
9.9996922
9.9996921
9.9996921
9.9996921
9.9996921
9.9996921
9.999692
9.999692
9.999692
9.999692
9.999692
9.999692
9.999692
9.999692
9.999692
9.999692
9.999692
9.999692
9.999692
9.999692
9.999692
9.999692
9.999692
9.999692
9.999692
9.999692
9.999692
9.999692
9.999692
9.999692
9.999692
9.999692
9.999692
1065.974
9.5083314
10.899937
9.893449
10.0211
10.087009
9.993873
10.044711
10.028463
10.054854
10.116668
10.159958
10.179721
10.131381
10.073298
10.028015
10.005553
10.000074
9.9997015
9.9997021
9.9997162
9.9997204
9.9997205
9.9997193
9.9997171
9.9997142
9.9997108
9.9997077
9.9997047
9.9997022
9.9997001
9.9996984
9.9996971
9.999696
9.9996952
9.9996945
9.999694
9.9996936
9.9996933
9.999693
9.9996928
9.9996927
9.9996925
9.9996924
9.9996923
9.9996923
9.9996922
9.9996922
9.9996921
9.9996921
9.9996921
9.9996921
9.9996921
9.999692
9.999692
9.999692
9.999692
9.999692
9.999692
9.999692
9.999692
9.999692
9.999692
9.999692
9.999692
9.999692
9.999692
9.999692
9.999692
9.999692
9.999692
9.999692
9.999692
9.999692
9.999692
9.999692
9.999692
9.999692
9.999692
9.999692
1066.9668
9.524943
10.875165
9.8987971
10.020479
10.084923
9.9935747
10.043845
10.027465
10.052741
10.11294
10.154998
10.17494
10.128296
10.071816
10.027526
10.005472
10.000073
9.9997025
9.9997025
9.9997163
9.9997204
9.9997205
9.9997193
9.9997172
9.9997142
9.9997109
9.9997075
9.9997048
9.9997022
9.9997001
9.9996984
9.9996971
9.999696
9.9996952
9.9996945
9.999694
9.9996936
9.9996933
9.999693
9.9996928
9.9996927
9.9996925
9.9996924
9.9996923
9.9996923
9.9996922
9.9996922
9.9996921
9.9996921
9.9996921
9.9996921
9.9996921
9.999692
9.999692
9.999692
9.999692
9.999692
9.999692
9.999692
9.999692
9.999692
9.999692
9.999692
9.999692
9.999692
9.999692
9.999692
9.999692
9.999692
9.999692
9.999692
9.999692
9.999692
9.999692
9.999692
9.999692
9.999692
9.999692
9.999692
1067.9527
9.541418
10.8512
9.9039694
10.020173
10.083138
9.9936724
10.043249
10.026722
10.050854
10.109429
10.150232
10.170243
10.125242
10.070332
10.027028
10.005385
10.000073
9.9997035
9.9997029
9.9997163
9.9997204
9.9997206
9.9997194
9.9997172
9.9997143
9.9997109
9.9997076
9.9997046
9.9997022
9.9997001
9.9996985
9.9996971
9.999696
9.9996952
9.9996945
9.999694
9.9996936
9.9996933
9.999693
9.9996928
9.9996927
9.9996925
9.9996924
9.9996923
9.9996923
9.9996922
9.9996922
9.9996921
9.9996921
9.9996921
9.9996921
9.9996921
9.999692
9.999692
9.999692
9.999692
9.999692
9.999692
9.999692
9.999692
9.999692