/*--------------------------------*- C++ -*----------------------------------*\
| =========                 |                                                 |
| \\      /  F ield         | OpenFOAM: The Open Source CFD Toolbox           |
|  \\    /   O peration     | Version:  2406                                  |
|   \\  /    A nd           | Website:  www.openfoam.com                      |
|    \\/     M anipulation  |                                                 |
\*---------------------------------------------------------------------------*/
FoamFile
{
    version     2.0;
    format      ascii;
    arch        "LSB;label=32;scalar=64";
    class       volScalarField;
    location    "0.00012";
    object      p;
}
// * * * * * * * * * * * * * * * * * * * * * * * * * * * * * * * * * * * * * //

dimensions      [1 -1 -2 0 0 0 0];

internalField   nonuniform List<scalar> 
16000
(
100092.98
99975.096
100127.64
99984.223
100095.87
100015.57
100067.46
100036.1
100053.36
100035.9
100046.53
100047.48
100052.2
100039.13
100023.69
100008.81
100002.06
99999.871
99999.877
99999.95
99999.997
100000
100000
100000
100000
100000
100000
100000
100000
100000
100000
100000
100000
100000
100000
100000
100000
100000
100000
100000
100000
100000
100000
100000
100000
100000
100000
100000
100000
100000
100000
100000
100000
100000
100000
100000
100000
100000
100000
100000
100000
100000
100000
100000
100000
100000
100000
100000
100000
100000
100000
100000
100000
100000
100000
100000
100000
100000
100000
100000
100169.68
100104.83
100179.8
100114.77
100170.94
100125.15
100149.01
100136.2
100145.23
100128.26
100139.61
100153.17
100162.93
100130.14
100081.87
100033.8
100010.36
100001.62
99999.997
99999.893
99999.965
99999.995
100000
100000
100000
100000
100000
100000
100000
100000
100000
100000
100000
100000
100000
100000
100000
100000
100000
100000
100000
100000
100000
100000
100000
100000
100000
100000
100000
100000
100000
100000
100000
100000
100000
100000
100000
100000
100000
100000
100000
100000
100000
100000
100000
100000
100000
100000
100000
100000
100000
100000
100000
100000
100000
100000
100000
100000
100000
100000
100270.27
100245.32
100246.93
100248.62
100250.79
100246.8
100234.11
100252.01
100243.08
100228.89
100231.96
100262.14
100279.77
100233.69
100153.71
100069.77
100023.51
100004.63
100000.31
99999.838
99999.924
99999.985
100000
100000
100000
100000
100000
100000
100000
100000
100000
100000
100000
100000
100000
100000
100000
100000
100000
100000
100000
100000
100000
100000
100000
100000
100000
100000
100000
100000
100000
100000
100000
100000
100000
100000
100000
100000
100000
100000
100000
100000
100000
100000
100000
100000
100000
100000
100000
100000
100000
100000
100000
100000
100000
100000
100000
100000
100000
100000
100350.58
100408.84
100263.71
100410.91
100319.33
100389.17
100319.55
100375.68
100345.56
100333.57
100322.06
100372.03
100399.7
100349.53
100240.36
100115.81
100041.56
100009.11
100000.89
99999.771
99999.872
99999.971
99999.999
100000
100000
100000
100000
100000
100000
100000
100000
100000
100000
100000
100000
100000
100000
100000
100000
100000
100000
100000
100000
100000
100000
100000
100000
100000
100000
100000
100000
100000
100000
100000
100000
100000
100000
100000
100000
100000
100000
100000
100000
100000
100000
100000
100000
100000
100000
100000
100000
100000
100000
100000
100000
100000
100000
100000
100000
100000
100451.4
100569.37
100276.52
100589.58
100378.96
100542.86
100395.38
100511.09
100448.26
100442.24
100411.09
100485.46
100522.8
100475.56
100340.29
100172.58
100065.41
100015.59
100001.89
99999.72
99999.808
99999.949
99999.997
100000
100000
100000
100000
100000
100000
100000
100000
100000
100000
100000
100000
100000
100000
100000
100000
100000
100000
100000
100000
100000
100000
100000
100000
100000
100000
100000
100000
100000
100000
100000
100000
100000
100000
100000
100000
100000
100000
100000
100000
100000
100000
100000
100000
100000
100000
100000
100000
100000
100000
100000
100000
100000
100000
100000
100000
100000
100552.14
100763.27
100290.99
100802.46
100445.58
100694.5
100463.59
100650.83
100557.38
100559.67
100502.57
100600.01
100649.31
100610.1
100452.93
100240.53
100095.76
100024.49
100003.46
99999.712
99999.735
99999.919
99999.993
100000
100000
100000
100000
100000
100000
100000
100000
100000
100000
100000
100000
100000
100000
100000
100000
100000
100000
100000
100000
100000
100000
100000
100000
100000
100000
100000
100000
100000
100000
100000
100000
100000
100000
100000
100000
100000
100000
100000
100000
100000
100000
100000
100000
100000
100000
100000
100000
100000
100000
100000
100000
100000
100000
100000
100000
100000
100649.45
100992.72
100291.49
101052.27
100498.67
100865.31
100527.21
100800.98
100672.74
100684.99
100598.25
100718.09
100779.87
100752
100577.55
100319.87
100133.17
100036.19
100005.75
99999.776
99999.653
99999.879
99999.988
100000
100000
100000
100000
100000
100000
100000
100000
100000
100000
100000
100000
100000
100000
100000
100000
100000
100000
100000
100000
100000
100000
100000
100000
100000
100000
100000
100000
100000
100000
100000
100000
100000
100000
100000
100000
100000
100000
100000
100000
100000
100000
100000
100000
100000
100000
100000
100000
100000
100000
100000
100000
100000
100000
100000
100000
100000
100742.29
101271.97
100275.7
101343.48
100535.6
101073.97
100576.99
100968.05
100794.31
100815.49
100698.3
100842.53
100917.01
100899.49
100713.41
100410.61
100178.08
100051.04
100008.91
99999.945
99999.561
99999.829
99999.98
100000
100000
100000
100000
100000
100000
100000
100000
100000
100000
100000
100000
100000
100000
100000
100000
100000
100000
100000
100000
100000
100000
100000
100000
100000
100000
100000
100000
100000
100000
100000
100000
100000
100000
100000
100000
100000
100000
100000
100000
100000
100000
100000
100000
100000
100000
100000
100000
100000
100000
100000
100000
100000
100000
100000
100000
100000
100829.7
101612.65
100249.57
101682.99
100557.41
101314.05
100628.01
101161.36
100904.08
100955.41
100815.52
100963.96
101065.21
101051.58
100860.36
100513.5
100230.92
100069.38
100013.07
100000.26
99999.463
99999.769
99999.969
100000
100000
100000
100000
100000
100000
100000
100000
100000
100000
100000
100000
100000
100000
100000
100000
100000
100000
100000
100000
100000
100000
100000
100000
100000
100000
100000
100000
100000
100000
100000
100000
100000
100000
100000
100000
100000
100000
100000
100000
100000
100000
100000
100000
100000
100000
100000
100000
100000
100000
100000
100000
100000
100000
100000
100000
100000
100918.44
102040.13
100204.39
102094.3
100557.43
101583.66
100696.62
101354.29
101021.64
101115.38
100939.84
101085.88
101215.29
101218.62
101018.85
100628.73
100292.2
100091.54
100018.4
100000.76
99999.361
99999.7
99999.955
100000
100000
100000
100000
100000
100000
100000
100000
100000
100000
100000
100000
100000
100000
100000
100000
100000
100000
100000
100000
100000
100000
100000
100000
100000
100000
100000
100000
100000
100000
100000
100000
100000
100000
100000
100000
100000
100000
100000
100000
100000
100000
100000
100000
100000
100000
100000
100000
100000
100000
100000
100000
100000
100000
100000
100000
100000
100999.84
102608.72
100111.95
102609.4
100532.07
101870.96
100795.07
101562.39
101136.56
101295.78
101073.95
101210.81
101369.66
101400.51
101191.16
100756.86
100362.5
100117.88
100025.05
100001.48
99999.258
99999.622
99999.937
99999.999
100000
100000
100000
100000
100000
100000
100000
100000
100000
100000
100000
100000
100000
100000
100000
100000
100000
100000
100000
100000
100000
100000
100000
100000
100000
100000
100000
100000
100000
100000
100000
100000
100000
100000
100000
100000
100000
100000
100000
100000
100000
100000
100000
100000
100000
100000
100000
100000
100000
100000
100000
100000
100000
100000
100000
100000
101062.94
103405.82
99941.978
103272.34
100480.05
102231.06
100876.21
101797.68
101254.25
101500.29
101220.18
101341.92
101528.07
101597.91
101377.91
100899.25
100442.71
100148.88
100033.22
100002.48
99999.16
99999.534
99999.914
99999.997
100000
100000
100000
100000
100000
100000
100000
100000
100000
100000
100000
100000
100000
100000
100000
100000
100000
100000
100000
100000
100000
100000
100000
100000
100000
100000
100000
100000
100000
100000
100000
100000
100000
100000
100000
100000
100000
100000
100000
100000
100000
100000
100000
100000
100000
100000
100000
100000
100000
100000
100000
100000
100000
100000
100000
100000
101118.28
104526.7
99694.438
104120.82
100394.95
102674.73
100957.02
102061.22
101380.43
101725.69
101378.21
101483.89
101686.42
101817.68
101577.96
101056.97
100533.88
100185.16
100043.13
100003.8
99999.072
99999.435
99999.885
99999.994
100000
100000
100000
100000
100000
100000
100000
100000
100000
100000
100000
100000
100000
100000
100000
100000
100000
100000
100000
100000
100000
100000
100000
100000
100000
100000
100000
100000
100000
100000
100000
100000
100000
100000
100000
100000
100000
100000
100000
100000
100000
100000
100000
100000
100000
100000
100000
100000
100000
100000
100000
100000
100000
100000
100000
100000
101179.26
106069.12
99376.724
105202.4
100280.1
103209.42
101047.16
102357.45
101519.32
101979.67
101548.87
101640.56
101850.56
102052.1
101795.55
101231.55
100637.21
100227.39
100055.02
100005.51
99999.002
99999.326
99999.85
99999.991
100000
100000
100000
100000
100000
100000
100000
100000
100000
100000
100000
100000
100000
100000
100000
100000
100000
100000
100000
100000
100000
100000
100000
100000
100000
100000
100000
100000
100000
100000
100000
100000
100000
100000
100000
100000
100000
100000
100000
100000
100000
100000
100000
100000
100000
100000
100000
100000
100000
100000
100000
100000
100000
100000
100000
100000
101236.5
108336.15
98960.6
106651.93
100132.17
103878.98
101153.13
102699.8
101676.29
102271.65
101736.94
101817.06
102028.06
102300.55
102032.19
101424.69
100753.86
100276.22
100069.17
100007.68
99998.957
99999.205
99999.809
99999.986
100000
100000
100000
100000
100000
100000
100000
100000
100000
100000
100000
100000
100000
100000
100000
100000
100000
100000
100000
100000
100000
100000
100000
100000
100000
100000
100000
100000
100000
100000
100000
100000
100000
100000
100000
100000
100000
100000
100000
100000
100000
100000
100000
100000
100000
100000
100000
100000
100000
100000
100000
100000
100000
100000
100000
100000
101254.06
111826.47
98295.019
108769.94
99954.147
104743.05
101280.05
103104.47
101855.9
102605.22
101950.96
102019.96
102225.19
102569.51
102291.34
101638.85
100885.09
100332.26
100085.77
100010.36
99998.944
99999.073
99999.76
99999.981
100000
100000
100000
100000
100000
100000
100000
100000
100000
100000
100000
100000
100000
100000
100000
100000
100000
100000
100000
100000
100000
100000
100000
100000
100000
100000
100000
100000
100000
100000
100000
100000
100000
100000
100000
100000
100000
100000
100000
100000
100000
100000
100000
100000
100000
100000
100000
100000
100000
100000
100000
100000
100000
100000
100000
100000
101170.54
117069.76
97431.836
111732.64
99734.412
105884.85
101439.29
103594.42
102066.69
102983.63
102190.33
102248.51
102444.25
102865.77
102578.46
101877.47
101032.27
100395.93
100104.92
100013.55
99998.966
99998.928
99999.705
99999.974
100000
100000
100000
100000
100000
100000
100000
100000
100000
100000
100000
100000
100000
100000
100000
100000
100000
100000
100000
100000
100000
100000
100000
100000
100000
100000
100000
100000
100000
100000
100000
100000
100000
100000
100000
100000
100000
100000
100000
100000
100000
100000
100000
100000
100000
100000
100000
100000
100000
100000
100000
100000
100000
100000
100000
100000
101179.92
125496.94
96396.376
115927.86
99492.936
107376.5
101642.39
104191.22
102302.34
103404.25
102446.35
102494.83
102678.08
103186.75
102894.52
102141.3
101195.3
100466.92
100126.38
100017.2
99999.014
99998.771
99999.644
99999.966
100000.01
100000
100000
100000
100000
100000
100000
100000
100000
100000
100000
100000
100000
100000
100000
100000
100000
100000
100000
100000
100000
100000
100000
100000
100000
100000
100000
100000
100000
100000
100000
100000
100000
100000
100000
100000
100000
100000
100000
100000
100000
100000
100000
100000
100000
100000
100000
100000
100000
100000
100000
100000
100000
100000
100000
100000
101199.45
139768.77
95338.531
122183.82
99296.497
109278.51
101991.53
104919.18
102576.63
103867.86
102712.55
102753.33
102918.94
103519.91
103228.17
102421.17
101368.77
100542.65
100149.24
100021.1
99999.073
99998.606
99999.581
99999.959
100000.01
100000
100000
100000
100000
100000
100000
100000
100000
100000
100000
100000
100000
100000
100000
100000
100000
100000
100000
100000
100000
100000
100000
100000
100000
100000
100000
100000
100000
100000
100000
100000
100000
100000
100000
100000
100000
100000
100000
100000
100000
100000
100000
100000
100000
100000
100000
100000
100000
100000
100000
100000
100000
100000
100000
100000
98068.865
181733.45
92365.342
134238.41
98831.915
112206.09
102387.05
105856.05
102840.88
104342.28
102959.9
103022.35
103175.36
103849.98
103553.98
102696.35
101538.67
100616.36
100171.27
100024.8
99999.116
99998.444
99999.523
99999.952
100000.01
100000
100000
100000
100000
100000
100000
100000
100000
100000
100000
100000
100000
100000
100000
100000
100000
100000
100000
100000
100000
100000
100000
100000
100000
100000
100000
100000
100000
100000
100000
100000
100000
100000
100000
100000
100000
100000
100000
100000
100000
100000
100000
100000
100000
100000
100000
100000
100000
100000
100000
100000
100000
100000
100000
100000
90003.705
148992.79
82660.836
153982.72
97403.657
116574.46
102584.52
106907.17
103022.4
104776.11
103166.93
103305.31
103455.87
104148.16
103850.05
102939.01
101684.4
100677.39
100188.87
100027.56
99999.098
99998.305
99999.479
99999.947
100000.01
100000
100000
100000
100000
100000
100000
100000
100000
100000
100000
100000
100000
100000
100000
100000
100000
100000
100000
100000
100000
100000
100000
100000
100000
100000
100000
100000
100000
100000
100000
100000
100000
100000
100000
100000
100000
100000
100000
100000
100000
100000
100000
100000
100000
100000
100000
100000
100000
100000
100000
100000
100000
100000
100000
100000
82479.828
101645.39
74896.238
161273.47
95267.153
121935.69
102483.1
108006.94
103115.57
105159.88
103288.5
103554.8
103713.68
104377.04
104098.33
103125.55
101784.93
100714.09
100197.8
100028.46
99998.952
99998.208
99999.46
99999.947
100000.01
100000
100000
100000
100000
100000
100000
100000
100000
100000
100000
100000
100000
100000
100000
100000
100000
100000
100000
100000
100000
100000
100000
100000
100000
100000
100000
100000
100000
100000
100000
100000
100000
100000
100000
100000
100000
100000
100000
100000
100000
100000
100000
100000
100000
100000
100000
100000
100000
100000
100000
100000
100000
100000
100000
100000
75927.204
74551.377
73433.481
157055.31
92063.253
126603.7
102018.84
109090.51
103025.32
105449.02
103266.97
103756.31
103838.68
104545.45
104303.61
103238.53
101822.2
100716.92
100194.81
100026.89
99998.655
99998.175
99999.473
99999.951
100000.01
100000
100000
100000
100000
100000
100000
100000
100000
100000
100000
100000
100000
100000
100000
100000
100000
100000
100000
100000
100000
100000
100000
100000
100000
100000
100000
100000
100000
100000
100000
100000
100000
100000
100000
100000
100000
100000
100000
100000
100000
100000
100000
100000
100000
100000
100000
100000
100000
100000
100000
100000
100000
100000
100000
100000
70078.906
60592.693
72840.954
150971.36
88645.969
129681.3
101341.21
109995.28
102704.73
105590.1
103174.6
103859.34
103845.06
104675.66
104410.96
103260.63
101788.79
100683.55
100179.71
100023.01
99998.27
99998.216
99999.521
99999.959
100000.01
100000
100000
100000
100000
100000
100000
100000
100000
100000
100000
100000
100000
100000
100000
100000
100000
100000
100000
100000
100000
100000
100000
100000
100000
100000
100000
100000
100000
100000
100000
100000
100000
100000
100000
100000
100000
100000
100000
100000
100000
100000
100000
100000
100000
100000
100000
100000
100000
100000
100000
100000
100000
100000
100000
100000
64662.36
47967.991
70836.375
141750.78
84398.721
131304.57
100636.24
110823.9
102176.68
105536.44
103087.7
103828.49
103829.23
104750.37
104418.58
103187.2
101691.82
100621.71
100156.03
100017.79
99997.909
99998.326
99999.594
99999.971
100000.01
100000
100000
100000
100000
100000
100000
100000
100000
100000
100000
100000
100000
100000
100000
100000
100000
100000
100000
100000
100000
100000
100000
100000
100000
100000
100000
100000
100000
100000
100000
100000
100000
100000
100000
100000
100000
100000
100000
100000
100000
100000
100000
100000
100000
100000
100000
100000
100000
100000
100000
100000
100000
100000
100000
100000
58984.661
42690.003
71153.252
127849.32
79328.522
132107.57
99471.929
111433.6
101535.37
105297.12
102905.61
103744.35
103840.22
104774.72
104357.33
103043.29
101555.33
100546.13
100129.55
100012.55
99997.677
99998.481
99999.676
99999.982
100000.01
100000
100000
100000
100000
100000
100000
100000
100000
100000
100000
100000
100000
100000
100000
100000
100000
100000
100000
100000
100000
100000
100000
100000
100000
100000
100000
100000
100000
100000
100000
100000
100000
100000
100000
100000
100000
100000
100000
100000
100000
100000
100000
100000
100000
100000
100000
100000
100000
100000
100000
100000
100000
100000
100000
100000
49125.68
37745.632
86665.64
121836.31
80831.28
128748.81
98097.053
111130.22
101195.28
104767.22
102770.53
103642.65
103887.09
104758.3
104262.09
102874.61
101416.69
100476.11
100106.67
100008.51
99997.605
99998.642
99999.744
99999.99
100000.01
100000
100000
100000
100000
100000
100000
100000
100000
100000
100000
100000
100000
100000
100000
100000
100000
100000
100000
100000
100000
100000
100000
100000
100000
100000
100000
100000
100000
100000
100000
100000
100000
100000
100000
100000
100000
100000
100000
100000
100000
100000
100000
100000
100000
100000
100000
100000
100000
100000
100000
100000
100000
100000
100000
100000
50253.32
45426.715
94379.914
134056.1
82724.763
124710.15
97120.47
109671.86
101342.59
104204.7
102718.33
103545.42
103955.05
104715.73
104188.44
102739.42
101319.29
100430
100092.65
100006.28
99997.623
99998.762
99999.785
99999.995
100000.01
100000
100000
100000
100000
100000
100000
100000
100000
100000
100000
100000
100000
100000
100000
100000
100000
100000
100000
100000
100000
100000
100000
100000
100000
100000
100000
100000
100000
100000
100000
100000
100000
100000
100000
100000
100000
100000
100000
100000
100000
100000
100000
100000
100000
100000
100000
100000
100000
100000
100000
100000
100000
100000
100000
100000
76333.923
93235.96
76826.883
147936.36
88013.296
118765.61
98130.878
106924.96
102091.84
103794.76
102698.46
103471.33
104014
104656.29
104177.92
102695.95
101302.35
100424.03
100091.9
100006.33
99997.655
99998.775
99999.785
99999.995
100000.01
100000
100000
100000
100000
100000
100000
100000
100000
100000
100000
100000
100000
100000
100000
100000
100000
100000
100000
100000
100000
100000
100000
100000
100000
100000
100000
100000
100000
100000
100000
100000
100000
100000
100000
100000
100000
100000
100000
100000
100000
100000
100000
100000
100000
100000
100000
100000
100000
100000
100000
100000
100000
100000
100000
100000
83879.476
112623.37
72265.265
146512.9
91496.573
116080.31
99388.495
105799.26
102386.68
103580.47
102688.52
103403.32
103990.39
104602.37
104258.89
102814.11
101416.34
100486.04
100114.46
100011.08
99997.939
99998.634
99999.704
99999.983
100000.01
100000
100000
100000
100000
100000
100000
100000
100000
100000
100000
100000
100000
100000
100000
100000
100000
100000
100000
100000
100000
100000
100000
100000
100000
100000
100000
100000
100000
100000
100000
100000
100000
100000
100000
100000
100000
100000
100000
100000
100000
100000
100000
100000
100000
100000
100000
100000
100000
100000
100000
100000
100000
100000
100000
100000
99810.565
97979.137
100501.35
98048.734
99852.671
98542.117
99364.443
98752.242
99171.755
99101.023
98963.899
98669.459
98806.65
99147.237
99550.176
99841.927
99961.251
99996.324
100000.7
100000.49
100000.1
100000.01
99999.997
99999.999
100000
100000
100000
100000
100000
100000
100000
100000
100000
100000
100000
100000
100000
100000
100000
100000
100000
100000
100000
100000
100000
100000
100000
100000
100000
100000
100000
100000
100000
100000
100000
100000
100000
100000
100000
100000
100000
100000
100000
100000
100000
100000
100000
100000
100000
100000
100000
100000
100000
100000
100000
100000
100000
100000
100000
100000
99849.435
98006.813
100499.83
98060.126
99859.827
98469.854
99360.87
98733.218
99107.592
98976.2
98853.55
98581.561
98695.693
99082.366
99502.513
99817.289
99952.667
99994.904
100000.72
100000.58
100000.13
100000.01
99999.997
99999.999
100000
100000
100000
100000
100000
100000
100000
100000
100000
100000
100000
100000
100000
100000
100000
100000
100000
100000
100000
100000
100000
100000
100000
100000
100000
100000
100000
100000
100000
100000
100000
100000
100000
100000
100000
100000
100000
100000
100000
100000
100000
100000
100000
100000
100000
100000
100000
100000
100000
100000
100000
100000
100000
100000
100000
100000
99593.992
97845.349
100257.68
97939.001
99675.342
98306.28
99146.991
98587.869
99000.349
98834.482
98760.57
98539.854
98672.039
99086.35
99507.471
99818.768
99952.613
99994.711
100000.67
100000.57
100000.14
100000.01
99999.997
99999.999
100000
100000
100000
100000
100000
100000
100000
100000
100000
100000
100000
100000
100000
100000
100000
100000
100000
100000
100000
100000
100000
100000
100000
100000
100000
100000
100000
100000
100000
100000
100000
100000
100000
100000
100000
100000
100000
100000
100000
100000
100000
100000
100000
100000
100000
100000
100000
100000
100000
100000
100000
100000
100000
100000
100000
100000
99556.144
97895.071
100234.8
97965.073
99655.498
98331.451
99154.524
98603.602
99007.512
98851.478
98795.229
98573.553
98704.824
99105.985
99517.016
99821.529
99953.143
99994.688
100000.64
100000.55
100000.13
100000.01
99999.997
99999.999
100000
100000
100000
100000
100000
100000
100000
100000
100000
100000
100000
100000
100000
100000
100000
100000
100000
100000
100000
100000
100000
100000
100000
100000
100000
100000
100000
100000
100000
100000
100000
100000
100000
100000
100000
100000
100000
100000
100000
100000
100000
100000
100000
100000
100000
100000
100000
100000
100000
100000
100000
100000
100000
100000
100000
100000
99545.13
97940.532
100214.16
98011.871
99648.079
98370.47
99169.618
98634.435
99028.57
98882.571
98831.101
98614.351
98738.829
99126.809
99526.452
99824.242
99953.601
99994.656
100000.61
100000.54
100000.13
100000.01
99999.997
99999.999
100000
100000
100000
100000
100000
100000
100000
100000
100000
100000
100000
100000
100000
100000
100000
100000
100000
100000
100000
100000
100000
100000
100000
100000
100000
100000
100000
100000
100000
100000
100000
100000
100000
100000
100000
100000
100000
100000
100000
100000
100000
100000
100000
100000
100000
100000
100000
100000
100000
100000
100000
100000
100000
100000
100000
100000
99547.613
97999.559
100203.64
98066.384
99652.76
98419.331
99194.24
98671.285
99054.385
98915.449
98866.712
98653.721
98770.776
99146.575
99535.335
99826.795
99954.019
99994.622
100000.58
100000.53
100000.13
100000.01
99999.997
99999.999
100000
100000
100000
100000
100000
100000
100000
100000
100000
100000
100000
100000
100000
100000
100000
100000
100000
100000
100000
100000
100000
100000
100000
100000
100000
100000
100000
100000
100000
100000
100000
100000
100000
100000
100000
100000
100000
100000
100000
100000
100000
100000
100000
100000
100000
100000
100000
100000
100000
100000
100000
100000
100000
100000
100000
100000
99549.891
98055.122
100192.85
98119.256
99656.024
98465.548
99217.091
98706.382
99078.675
98946.507
98900.517
98691.544
98801.72
99165.864
99544.104
99829.347
99954.45
99994.593
100000.55
100000.52
100000.13
100000.01
99999.997
99999.999
100000
100000
100000
100000
100000
100000
100000
100000
100000
100000
100000
100000
100000
100000
100000
100000
100000
100000
100000
100000
100000
100000
100000
100000
100000
100000
100000
100000
100000
100000
100000
100000
100000
100000
100000
100000
100000
100000
100000
100000
100000
100000
100000
100000
100000
100000
100000
100000
100000
100000
100000
100000
100000
100000
100000
100000
99552.677
98109.114
100182.79
98170.628
99659.7
98510.429
99239.358
98740.467
99102.438
98976.737
98933.418
98728.467
98832.209
99184.984
99552.908
99831.954
99954.909
99994.57
100000.53
100000.51
100000.13
100000.01
99999.997
99999.999
100000
100000
100000
100000
100000
100000
100000
100000
100000
100000
100000
100000
100000
100000
100000
100000
100000
100000
100000
100000
100000
100000
100000
100000
100000
100000
100000
100000
100000
100000
100000
100000
100000
100000
100000
100000
100000
100000
100000
100000
100000
100000
100000
100000
100000
100000
100000
100000
100000
100000
100000
100000
100000
100000
100000
100000
99556.07
98162.343
100173.36
98221.124
99663.898
98554.468
99261.367
98774.146
99126.032
99006.532
98965.792
98764.876
98862.539
99204.126
99561.846
99834.651
99955.406
99994.556
100000.5
100000.5
100000.13
100000.01
99999.998
99999.999
100000
100000
100000
100000
100000
100000
100000
100000
100000
100000
100000
100000
100000
100000
100000
100000
100000
100000
100000
100000
100000
100000
100000
100000
100000
100000
100000
100000
100000
100000
100000
100000
100000
100000
100000
100000
100000
100000
100000
100000
100000
100000
100000
100000
100000
100000
100000
100000
100000
100000
100000
100000
100000
100000
100000
100000
99560.072
98215.053
100164.38
98271.079
99668.585
98597.993
99283.258
98807.61
99149.59
99036.105
98997.772
98800.991
98892.889
99223.415
99570.983
99837.465
99955.949
99994.551
100000.47
100000.49
100000.13
100000.01
99999.998
99999.999
100000
100000
100000
100000
100000
100000
100000
100000
100000
100000
100000
100000
100000
100000
100000
100000
100000
100000
100000
100000
100000
100000
100000
100000
100000
100000
100000
100000
100000
100000
100000
100000
100000
100000
100000
100000
100000
100000
100000
100000
100000
100000
100000
100000
100000
100000
100000
100000
100000
100000
100000
100000
100000
100000
100000
100000
99566.735
98267.936
100155.7
98321.059
99673.857
98641.4
99305.217
98841.194
99173.34
99065.678
99029.642
98837.08
98923.517
99243.036
99580.43
99840.439
99956.55
99994.558
100000.45
100000.48
100000.13
100000.01
99999.998
99999.999
100000
100000
100000
100000
100000
100000
100000
100000
100000
100000
100000
100000
100000
100000
100000
100000
100000
100000
100000
100000
100000
100000
100000
100000
100000
100000
100000
100000
100000
100000
100000
100000
100000
100000
100000
100000
100000
100000
100000
100000
100000
100000
100000
100000
100000
100000
100000
100000
100000
100000
100000
100000
100000
100000
100000
100000
99576.707
98321.158
100147.17
98371.402
99679.695
98684.977
99327.332
98875.093
99197.412
99095.459
99061.55
98873.386
98954.629
99263.137
99590.265
99843.605
99957.218
99994.577
100000.42
100000.47
100000.13
100000.01
99999.998
99999.999
100000
100000
100000
100000
100000
100000
100000
100000
100000
100000
100000
100000
100000
100000
100000
100000
100000
100000
100000
100000
100000
100000
100000
100000
100000
100000
100000
100000
100000
100000
100000
100000
100000
100000
100000
100000
100000
100000
100000
100000
100000
100000
100000
100000
100000
100000
100000
100000
100000
100000
100000
100000
100000
100000
100000
100000
99586.938
98375.13
100138.63
98422.514
99686.105
98729.029
99349.749
98909.595
99222.016
99125.667
99093.754
98910.177
98986.485
99283.905
99600.602
99847.009
99957.968
99994.611
100000.4
100000.46
100000.12
100000.01
99999.998
99999.999
100000
100000
100000
100000
100000
100000
100000
100000
100000
100000
100000
100000
100000
100000
100000
100000
100000
100000
100000
100000
100000
100000
100000
100000
100000
100000
100000
100000
100000
100000
100000
100000
100000
100000
100000
100000
100000
100000
100000
100000
100000
100000
100000
100000
100000
100000
100000
100000
100000
100000
100000
100000
100000
100000
100000
100000
99597.651
98430.396
100130.11
98474.877
99693.197
98773.928
99372.64
98944.974
99247.338
99156.526
99126.463
98947.714
99019.317
99305.506
99611.533
99850.688
99958.81
99994.662
100000.38
100000.45
100000.12
100000.01
99999.998
99999.999
100000
100000
100000
100000
100000
100000
100000
100000
100000
100000
100000
100000
100000
100000
100000
100000
100000
100000
100000
100000
100000
100000
100000
100000
100000
100000
100000
100000
100000
100000
100000
100000
100000
100000
100000
100000
100000
100000
100000
100000
100000
100000
100000
100000
100000
100000
100000
100000
100000
100000
100000
100000
100000
100000
100000
100000
99608.947
98487.257
100121.45
98528.858
99700.973
98819.984
99396.133
98981.467
99273.554
99188.281
99159.898
98986.267
99053.37
99328.119
99623.162
99854.685
99959.757
99994.732
100000.35
100000.43
100000.12
100000.01
99999.998
99999.999
100000
100000
100000
100000
100000
100000
100000
100000
100000
100000
100000
100000
100000
100000
100000
100000
100000
100000
100000
100000
100000
100000
100000
100000
100000
100000
100000
100000
100000
100000
100000
100000
100000
100000
100000
100000
100000
100000
100000
100000
100000
100000
100000
100000
100000
100000
100000
100000
100000
100000
100000
100000
100000
100000
100000
100000
99620.963
98546.247
100112.6
98584.964
99709.538
98867.573
99420.41
99019.405
99300.91
99221.182
99194.345
99026.144
99088.94
99351.96
99635.618
99859.052
99960.825
99994.823
100000.33
100000.42
100000.12
100000.01
99999.998
99999.999
100000
100000
100000
100000
100000
100000
100000
100000
100000
100000
100000
100000
100000
100000
100000
100000
100000
100000
100000
100000
100000
100000
100000
100000
100000
100000
100000
100000
100000
100000
100000
100000
100000
100000
100000
100000
100000
100000
100000
100000
100000
100000
100000
100000
100000
100000
100000
100000
100000
100000
100000
100000
100000
100000
100000
100000
99633.95
98607.81
100103.65
98643.683
99719.03
98917.074
99445.651
99059.089
99329.621
99255.469
99230.063
99067.648
99126.294
99377.229
99649.013
99863.836