/*--------------------------------*- C++ -*----------------------------------*\
| =========                 |                                                 |
| \\      /  F ield         | OpenFOAM: The Open Source CFD Toolbox           |
|  \\    /   O peration     | Version:  2406                                  |
|   \\  /    A nd           | Website:  www.openfoam.com                      |
|    \\/     M anipulation  |                                                 |
\*---------------------------------------------------------------------------*/
FoamFile
{
    version     2.0;
    format      ascii;
    arch        "LSB;label=32;scalar=64";
    class       volScalarField;
    location    "0.00012";
    object      rho;
}
// * * * * * * * * * * * * * * * * * * * * * * * * * * * * * * * * * * * * * //

dimensions      [1 -3 0 0 0 0 0];

internalField   nonuniform List<scalar> 
16000
(
1.163466
1.1712016
1.1655572
1.1665356
1.1670514
1.1665298
1.1668616
1.1666588
1.1667651
1.1666507
1.1667155
1.1667181
1.1667445
1.1666564
1.166554
1.1664563
1.1664121
1.1663978
1.1663978
1.1663983
1.1663986
1.1663986
1.1663986
1.1663986
1.1663986
1.1663986
1.1663986
1.1663986
1.1663986
1.1663986
1.1663986
1.1663986
1.1663986
1.1663986
1.1663986
1.1663986
1.1663986
1.1663986
1.1663986
1.1663986
1.1663986
1.1663986
1.1663986
1.1663986
1.1663986
1.1663986
1.1663986
1.1663986
1.1663986
1.1663986
1.1663986
1.1663986
1.1663986
1.1663986
1.1663986
1.1663986
1.1663986
1.1663986
1.1663986
1.1663986
1.1663986
1.1663986
1.1663986
1.1663986
1.1663986
1.1663986
1.1663986
1.1663986
1.1663986
1.1663986
1.1663986
1.1663986
1.1663986
1.1663986
1.1663986
1.1663986
1.1663986
1.1663986
1.1663986
1.1663986
1.1656336
1.1697245
1.166845
1.167168
1.16755
1.1672406
1.1673923
1.1673081
1.167362
1.1672498
1.1673189
1.1674025
1.1674615
1.1672461
1.1669313
1.1666186
1.1664661
1.1664092
1.1663986
1.1663979
1.1663984
1.1663986
1.1663986
1.1663986
1.1663986
1.1663986
1.1663986
1.1663986
1.1663986
1.1663986
1.1663986
1.1663986
1.1663986
1.1663986
1.1663986
1.1663986
1.1663986
1.1663986
1.1663986
1.1663986
1.1663986
1.1663986
1.1663986
1.1663986
1.1663986
1.1663986
1.1663986
1.1663986
1.1663986
1.1663986
1.1663986
1.1663986
1.1663986
1.1663986
1.1663986
1.1663986
1.1663986
1.1663986
1.1663986
1.1663986
1.1663986
1.1663986
1.1663986
1.1663986
1.1663986
1.1663986
1.1663986
1.1663986
1.1663986
1.1663986
1.1663986
1.1663986
1.1663986
1.1663986
1.1663986
1.1663986
1.1663986
1.1663986
1.1663986
1.1663986
1.1674426
1.1685681
1.1687234
1.1674722
1.1681938
1.1679749
1.1679525
1.168055
1.1679989
1.1679014
1.1679182
1.1681077
1.1682178
1.1679166
1.1673969
1.1668519
1.1665515
1.1664288
1.1664007
1.1663976
1.1663981
1.1663985
1.1663986
1.1663986
1.1663986
1.1663986
1.1663986
1.1663986
1.1663986
1.1663986
1.1663986
1.1663986
1.1663986
1.1663986
1.1663986
1.1663986
1.1663986
1.1663986
1.1663986
1.1663986
1.1663986
1.1663986
1.1663986
1.1663986
1.1663986
1.1663986
1.1663986
1.1663986
1.1663986
1.1663986
1.1663986
1.1663986
1.1663986
1.1663986
1.1663986
1.1663986
1.1663986
1.1663986
1.1663986
1.1663986
1.1663986
1.1663986
1.1663986
1.1663986
1.1663986
1.1663986
1.1663986
1.1663986
1.1663986
1.1663986
1.1663986
1.1663986
1.1663986
1.1663986
1.1663986
1.1663986
1.1663986
1.1663986
1.1663986
1.1663986
1.1695627
1.1665998
1.1712973
1.1673222
1.1689295
1.1688017
1.1685268
1.1688432
1.1686669
1.1685777
1.1685034
1.1688184
1.1689937
1.1686655
1.1679579
1.1671503
1.1666685
1.1664579
1.1664044
1.1663972
1.1663978
1.1663985
1.1663986
1.1663986
1.1663986
1.1663986
1.1663986
1.1663986
1.1663986
1.1663986
1.1663986
1.1663986
1.1663986
1.1663986
1.1663986
1.1663986
1.1663986
1.1663986
1.1663986
1.1663986
1.1663986
1.1663986
1.1663986
1.1663986
1.1663986
1.1663986
1.1663986
1.1663986
1.1663986
1.1663986
1.1663986
1.1663986
1.1663986
1.1663986
1.1663986
1.1663986
1.1663986
1.1663986
1.1663986
1.1663986
1.1663986
1.1663986
1.1663986
1.1663986
1.1663986
1.1663986
1.1663986
1.1663986
1.1663986
1.1663986
1.1663986
1.1663986
1.1663986
1.1663986
1.1663986
1.1663986
1.1663986
1.1663986
1.1663986
1.1663986
1.1717447
1.1644749
1.1740666
1.1669976
1.1699215
1.1695858
1.1690992
1.1696522
1.1693435
1.1692757
1.169083
1.1695506
1.1697899
1.169479
1.1686044
1.1675178
1.1668231
1.1665
1.1664109
1.1663968
1.1663974
1.1663983
1.1663986
1.1663986
1.1663986
1.1663986
1.1663986
1.1663986
1.1663986
1.1663986
1.1663986
1.1663986
1.1663986
1.1663986
1.1663986
1.1663986
1.1663986
1.1663986
1.1663986
1.1663986
1.1663986
1.1663986
1.1663986
1.1663986
1.1663986
1.1663986
1.1663986
1.1663986
1.1663986
1.1663986
1.1663986
1.1663986
1.1663986
1.1663986
1.1663986
1.1663986
1.1663986
1.1663986
1.1663986
1.1663986
1.1663986
1.1663986
1.1663986
1.1663986
1.1663986
1.1663986
1.1663986
1.1663986
1.1663986
1.1663986
1.1663986
1.1663986
1.1663986
1.1663986
1.1663986
1.1663986
1.1663986
1.1663986
1.1663986
1.1663986
1.1743836
1.1616091
1.1775554
1.1665891
1.1708948
1.1704597
1.1695875
1.1705133
1.1700964
1.1699951
1.1696843
1.170287
1.1706081
1.1703458
1.1693324
1.1679575
1.1670197
1.1665577
1.1664212
1.1663968
1.1663969
1.1663981
1.1663986
1.1663986
1.1663986
1.1663986
1.1663986
1.1663986
1.1663986
1.1663986
1.1663986
1.1663986
1.1663986
1.1663986
1.1663986
1.1663986
1.1663986
1.1663986
1.1663986
1.1663986
1.1663986
1.1663986
1.1663986
1.1663986
1.1663986
1.1663986
1.1663986
1.1663986
1.1663986
1.1663986
1.1663986
1.1663986
1.1663986
1.1663986
1.1663986
1.1663986
1.1663986
1.1663986
1.1663986
1.1663986
1.1663986
1.1663986
1.1663986
1.1663986
1.1663986
1.1663986
1.1663986
1.1663986
1.1663986
1.1663986
1.1663986
1.1663986
1.1663986
1.1663986
1.1663986
1.1663986
1.1663986
1.1663986
1.1663986
1.1663986
1.1774258
1.1578954
1.1818591
1.1659782
1.1718064
1.1715086
1.1699923
1.1714893
1.1708844
1.1707601
1.1703263
1.1710338
1.1714543
1.1712573
1.170137
1.1684705
1.1672617
1.1666335
1.166436
1.1663972
1.1663964
1.1663979
1.1663986
1.1663986
1.1663986
1.1663986
1.1663986
1.1663986
1.1663986
1.1663986
1.1663986
1.1663986
1.1663986
1.1663986
1.1663986
1.1663986
1.1663986
1.1663986
1.1663986
1.1663986
1.1663986
1.1663986
1.1663986
1.1663986
1.1663986
1.1663986
1.1663986
1.1663986
1.1663986
1.1663986
1.1663986
1.1663986
1.1663986
1.1663986
1.1663986
1.1663986
1.1663986
1.1663986
1.1663986
1.1663986
1.1663986
1.1663986
1.1663986
1.1663986
1.1663986
1.1663986
1.1663986
1.1663986
1.1663986
1.1663986
1.1663986
1.1663986
1.1663986
1.1663986
1.1663986
1.1663986
1.1663986
1.1663986
1.1663986
1.1663986
1.1811125
1.1530156
1.1870708
1.1651359
1.1727027
1.1728515
1.1701755
1.1727134
1.1716322
1.1715982
1.1710223
1.1717865
1.1723503
1.1721991
1.1710134
1.1690569
1.167552
1.1667296
1.1664565
1.1663983
1.1663958
1.1663975
1.1663985
1.1663986
1.1663986
1.1663986
1.1663986
1.1663986
1.1663986
1.1663986
1.1663986
1.1663986
1.1663986
1.1663986
1.1663986
1.1663986
1.1663986
1.1663986
1.1663986
1.1663986
1.1663986
1.1663986
1.1663986
1.1663986
1.1663986
1.1663986
1.1663986
1.1663986
1.1663986
1.1663986
1.1663986
1.1663986
1.1663986
1.1663986
1.1663986
1.1663986
1.1663986
1.1663986
1.1663986
1.1663986
1.1663986
1.1663986
1.1663986
1.1663986
1.1663986
1.1663986
1.1663986
1.1663986
1.1663986
1.1663986
1.1663986
1.1663986
1.1663986
1.1663986
1.1663986
1.1663986
1.1663986
1.1663986
1.1663986
1.1663986
1.1854028
1.1469378
1.1932596
1.1641139
1.1734881
1.1745536
1.1702191
1.1742591
1.1722136
1.1725519
1.1717595
1.1725661
1.1733244
1.1731519
1.1719607
1.1697212
1.1678932
1.1668482
1.1664835
1.1664004
1.1663952
1.1663971
1.1663984
1.1663986
1.1663986
1.1663986
1.1663986
1.1663986
1.1663986
1.1663986
1.1663986
1.1663986
1.1663986
1.1663986
1.1663986
1.1663986
1.1663986
1.1663986
1.1663986
1.1663986
1.1663986
1.1663986
1.1663986
1.1663986
1.1663986
1.1663986
1.1663986
1.1663986
1.1663986
1.1663986
1.1663986
1.1663986
1.1663986
1.1663986
1.1663986
1.1663986
1.1663986
1.1663986
1.1663986
1.1663986
1.1663986
1.1663986
1.1663986
1.1663986
1.1663986
1.1663986
1.1663986
1.1663986
1.1663986
1.1663986
1.1663986
1.1663986
1.1663986
1.1663986
1.1663986
1.1663986
1.1663986
1.1663986
1.1663986
1.1663986
1.1904205
1.1393834
1.2006897
1.1628693
1.1742246
1.1765579
1.1702505
1.1758239
1.1728382
1.173648
1.1725453
1.1733877
1.1742711
1.1742063
1.172981
1.1704646
1.1682886
1.1669913
1.1665179
1.1664036
1.1663945
1.1663967
1.1663983
1.1663986
1.1663987
1.1663986
1.1663986
1.1663986
1.1663986
1.1663986
1.1663986
1.1663986
1.1663986
1.1663986
1.1663986
1.1663986
1.1663986
1.1663986
1.1663986
1.1663986
1.1663986
1.1663986
1.1663986
1.1663986
1.1663986
1.1663986
1.1663986
1.1663986
1.1663986
1.1663986
1.1663986
1.1663986
1.1663986
1.1663986
1.1663986
1.1663986
1.1663986
1.1663986
1.1663986
1.1663986
1.1663986
1.1663986
1.1663986
1.1663986
1.1663986
1.1663986
1.1663986
1.1663986
1.1663986
1.1663986
1.1663986
1.1663986
1.1663986
1.1663986
1.1663986
1.1663986
1.1663986
1.1663986
1.1663986
1.1663986
1.1966322
1.1294149
1.2098911
1.1612655
1.1749239
1.1789598
1.1701208
1.1776345
1.1733959
1.174873
1.1733913
1.1742378
1.1752568
1.1753532
1.1740882
1.1712905
1.1687417
1.1671612
1.1665609
1.1664083
1.1663938
1.1663962
1.1663982
1.1663986
1.1663987
1.1663986
1.1663986
1.1663986
1.1663986
1.1663986
1.1663986
1.1663986
1.1663986
1.1663986
1.1663986
1.1663986
1.1663986
1.1663986
1.1663986
1.1663986
1.1663986
1.1663986
1.1663986
1.1663986
1.1663986
1.1663986
1.1663986
1.1663986
1.1663986
1.1663986
1.1663986
1.1663986
1.1663986
1.1663986
1.1663986
1.1663986
1.1663986
1.1663986
1.1663986
1.1663986
1.1663986
1.1663986
1.1663986
1.1663986
1.1663986
1.1663986
1.1663986
1.1663986
1.1663986
1.1663986
1.1663986
1.1663986
1.1663986
1.1663986
1.1663986
1.1663986
1.1663986
1.1663986
1.1663986
1.1663986
1.2045894
1.1159994
1.2213167
1.1592344
1.1756238
1.1818834
1.1698226
1.1796988
1.1739219
1.1762462
1.1743218
1.1751365
1.1762756
1.1766012
1.1752839
1.1722076
1.1692582
1.167361
1.1666137
1.1664147
1.1663932
1.1663956
1.1663981
1.1663986
1.1663987
1.1663986
1.1663986
1.1663986
1.1663986
1.1663986
1.1663986
1.1663986
1.1663986
1.1663986
1.1663986
1.1663986
1.1663986
1.1663986
1.1663986
1.1663986
1.1663986
1.1663986
1.1663986
1.1663986
1.1663986
1.1663986
1.1663986
1.1663986
1.1663986
1.1663986
1.1663986
1.1663986
1.1663986
1.1663986
1.1663986
1.1663986
1.1663986
1.1663986
1.1663986
1.1663986
1.1663986
1.1663986
1.1663986
1.1663986
1.1663986
1.1663986
1.1663986
1.1663986
1.1663986
1.1663986
1.1663986
1.1663986
1.1663986
1.1663986
1.1663986
1.1663986
1.1663986
1.1663986
1.1663986
1.1663986
1.214185
1.0991998
1.235024
1.1568759
1.1762963
1.185426
1.169358
1.1820723
1.1744377
1.1777768
1.1753228
1.1760871
1.1772992
1.1780134
1.176554
1.1732225
1.1698447
1.1675945
1.1666775
1.1664233
1.1663927
1.166395
1.1663979
1.1663986
1.1663987
1.1663986
1.1663986
1.1663986
1.1663986
1.1663986
1.1663986
1.1663986
1.1663986
1.1663986
1.1663986
1.1663986
1.1663986
1.1663986
1.1663986
1.1663986
1.1663986
1.1663986
1.1663986
1.1663986
1.1663986
1.1663986
1.1663986
1.1663986
1.1663986
1.1663986
1.1663986
1.1663986
1.1663986
1.1663986
1.1663986
1.1663986
1.1663986
1.1663986
1.1663986
1.1663986
1.1663986
1.1663986
1.1663986
1.1663986
1.1663986
1.1663986
1.1663986
1.1663986
1.1663986
1.1663986
1.1663986
1.1663986
1.1663986
1.1663986
1.1663986
1.1663986
1.1663986
1.1663986
1.1663986
1.1663986
1.2252794
1.0790363
1.2511718
1.1542338
1.1769387
1.1896693
1.168748
1.1848117
1.1749605
1.1795315
1.176389
1.1771156
1.1783688
1.1795275
1.1779316
1.1743447
1.1705087
1.1678657
1.166754
1.1664343
1.1663922
1.1663943
1.1663977
1.1663986
1.1663987
1.1663986
1.1663986
1.1663986
1.1663986
1.1663986
1.1663986
1.1663986
1.1663986
1.1663986
1.1663986
1.1663986
1.1663986
1.1663986
1.1663986
1.1663986
1.1663986
1.1663986
1.1663986
1.1663986
1.1663986
1.1663986
1.1663986
1.1663986
1.1663986
1.1663986
1.1663986
1.1663986
1.1663986
1.1663986
1.1663986
1.1663986
1.1663986
1.1663986
1.1663986
1.1663986
1.1663986
1.1663986
1.1663986
1.1663986
1.1663986
1.1663986
1.1663986
1.1663986
1.1663986
1.1663986
1.1663986
1.1663986
1.1663986
1.1663986
1.1663986
1.1663986
1.1663986
1.1663986
1.1663986
1.1663986
1.2390099
1.0534969
1.2708764
1.1513492
1.1775844
1.1949721
1.1679456
1.1880607
1.1754965
1.1815888
1.1775408
1.1782754
1.1795196
1.1811341
1.179429
1.1755847
1.1712573
1.168179
1.1668449
1.1664482
1.1663919
1.1663935
1.1663974
1.1663986
1.1663987
1.1663986
1.1663986
1.1663986
1.1663986
1.1663986
1.1663986
1.1663986
1.1663986
1.1663986
1.1663986
1.1663986
1.1663986
1.1663986
1.1663986
1.1663986
1.1663986
1.1663986
1.1663986
1.1663986
1.1663986
1.1663986
1.1663986
1.1663986
1.1663986
1.1663986
1.1663986
1.1663986
1.1663986
1.1663986
1.1663986
1.1663986
1.1663986
1.1663986
1.1663986
1.1663986
1.1663986
1.1663986
1.1663986
1.1663986
1.1663986
1.1663986
1.1663986
1.1663986
1.1663986
1.1663986
1.1663986
1.1663986
1.1663986
1.1663986
1.1663986
1.1663986
1.1663986
1.1663986
1.1663986
1.1663986
1.256478
1.0200867
1.2939415
1.1497584
1.178209
1.2017773
1.1668778
1.192002
1.1760323
1.1839833
1.1788321
1.1796122
1.180792
1.1828746
1.1810683
1.1769578
1.1720983
1.1685378
1.1669513
1.1664654
1.1663918
1.1663927
1.1663971
1.1663985
1.1663987
1.1663987
1.1663986
1.1663986
1.1663986
1.1663986
1.1663986
1.1663986
1.1663986
1.1663986
1.1663986
1.1663986
1.1663986
1.1663986
1.1663986
1.1663986
1.1663986
1.1663986
1.1663986
1.1663986
1.1663986
1.1663986
1.1663986
1.1663986
1.1663986
1.1663986
1.1663986
1.1663986
1.1663986
1.1663986
1.1663986
1.1663986
1.1663986
1.1663986
1.1663986
1.1663986
1.1663986
1.1663986
1.1663986
1.1663986
1.1663986
1.1663986
1.1663986
1.1663986
1.1663986
1.1663986
1.1663986
1.1663986
1.1663986
1.1663986
1.1663986
1.1663986
1.1663986
1.1663986
1.1663986
1.1663986
1.2777719
0.97777256
1.3197068
1.1509773
1.1788276
1.2105638
1.1656198
1.1967974
1.1766124
1.1867414
1.1802578
1.1811227
1.182204
1.1847928
1.1828822
1.1784857
1.1730401
1.1689445
1.1670736
1.1664858
1.166392
1.1663917
1.1663967
1.1663985
1.1663987
1.1663987
1.1663986
1.1663986
1.1663986
1.1663986
1.1663986
1.1663986
1.1663986
1.1663986
1.1663986
1.1663986
1.1663986
1.1663986
1.1663986
1.1663986
1.1663986
1.1663986
1.1663986
1.1663986
1.1663986
1.1663986
1.1663986
1.1663986
1.1663986
1.1663986
1.1663986
1.1663986
1.1663986
1.1663986
1.1663986
1.1663986
1.1663986
1.1663986
1.1663986
1.1663986
1.1663986
1.1663986
1.1663986
1.1663986
1.1663986
1.1663986
1.1663986
1.1663986
1.1663986
1.1663986
1.1663986
1.1663986
1.1663986
1.1663986
1.1663986
1.1663986
1.1663986
1.1663986
1.1663986
1.1663986
1.3042375
0.92558108
1.3489444
1.1569621
1.1795141
1.221998
1.1641095
1.2026461
1.1771681
1.1898421
1.1817601
1.1827553
1.1837093
1.1868687
1.184875
1.1801722
1.1740816
1.1693967
1.1672103
1.1665091
1.1663923
1.1663907
1.1663964
1.1663984
1.1663987
1.1663987
1.1663986
1.1663986
1.1663986
1.1663986
1.1663986
1.1663986
1.1663986
1.1663986
1.1663986
1.1663986
1.1663986
1.1663986
1.1663986
1.1663986
1.1663986
1.1663986
1.1663986
1.1663986
1.1663986
1.1663986
1.1663986
1.1663986
1.1663986
1.1663986
1.1663986
1.1663986
1.1663986
1.1663986
1.1663986
1.1663986
1.1663986
1.1663986
1.1663986
1.1663986
1.1663986
1.1663986
1.1663986
1.1663986
1.1663986
1.1663986
1.1663986
1.1663986
1.1663986
1.1663986
1.1663986
1.1663986
1.1663986
1.1663986
1.1663986
1.1663986
1.1663986
1.1663986
1.1663986
1.1663986
1.339354
0.85929325
1.385517
1.1701712
1.1810472
1.2363695
1.1631183
1.2097421
1.1777908
1.1932908
1.1833042
1.1844701
1.1852497
1.1890133
1.1869764
1.1819569
1.1751853
1.1698768
1.1673553
1.1665338
1.1663926
1.1663897
1.166396
1.1663984
1.1663987
1.1663987
1.1663986
1.1663986
1.1663986
1.1663986
1.1663986
1.1663986
1.1663986
1.1663986
1.1663986
1.1663986
1.1663986
1.1663986
1.1663986
1.1663986
1.1663986
1.1663986
1.1663986
1.1663986
1.1663986
1.1663986
1.1663986
1.1663986
1.1663986
1.1663986
1.1663986
1.1663986
1.1663986
1.1663986
1.1663986
1.1663986
1.1663986
1.1663986
1.1663986
1.1663986
1.1663986
1.1663986
1.1663986
1.1663986
1.1663986
1.1663986
1.1663986
1.1663986
1.1663986
1.1663986
1.1663986
1.1663986
1.1663986
1.1663986
1.1663986
1.1663986
1.1663986
1.1663986
1.1663986
1.1663986
1.3938863
0.72916083
1.4407425
1.2045883
1.1832244
1.2574038
1.1618334
1.2187212
1.1781725
1.1968612
1.1847114
1.1862474
1.1868674
1.1911129
1.1890256
1.1837007
1.1762583
1.1703414
1.1674941
1.1665571
1.1663929
1.1663887
1.1663956
1.1663983
1.1663987
1.1663987
1.1663986
1.1663986
1.1663986
1.1663986
1.1663986
1.1663986
1.1663986
1.1663986
1.1663986
1.1663986
1.1663986
1.1663986
1.1663986
1.1663986
1.1663986
1.1663986
1.1663986
1.1663986
1.1663986
1.1663986
1.1663986
1.1663986
1.1663986
1.1663986
1.1663986
1.1663986
1.1663986
1.1663986
1.1663986
1.1663986
1.1663986
1.1663986
1.1663986
1.1663986
1.1663986
1.1663986
1.1663986
1.1663986
1.1663986
1.1663986
1.1663986
1.1663986
1.1663986
1.1663986
1.1663986
1.1663986
1.1663986
1.1663986
1.1663986
1.1663986
1.1663986
1.1663986
1.1663986
1.1663986
1.4693531
0.51787926
1.4714117
1.2710914
1.181717
1.2905782
1.1564641
1.2301699
1.1771338
1.2004766
1.1857595
1.1881297
1.1885973
1.1929545
1.1908971
1.1852226
1.1771705
1.1707217
1.1676036
1.1665742
1.1663927
1.1663878
1.1663953
1.1663983
1.1663987
1.1663987
1.1663986
1.1663986
1.1663986
1.1663986
1.1663986
1.1663986
1.1663986
1.1663986
1.1663986
1.1663986
1.1663986
1.1663986
1.1663986
1.1663986
1.1663986
1.1663986
1.1663986
1.1663986
1.1663986
1.1663986
1.1663986
1.1663986
1.1663986
1.1663986
1.1663986
1.1663986
1.1663986
1.1663986
1.1663986
1.1663986
1.1663986
1.1663986
1.1663986
1.1663986
1.1663986
1.1663986
1.1663986
1.1663986
1.1663986
1.1663986
1.1663986
1.1663986
1.1663986
1.1663986
1.1663986
1.1663986
1.1663986
1.1663986
1.1663986
1.1663986
1.1663986
1.1663986
1.1663986
1.1663986
1.5204722
0.35330596
1.4814686
1.2754497
1.1780619
1.3316739
1.1475323
1.2425838
1.1751924
1.2038066
1.1862683
1.1896942
1.1901445
1.1942811
1.1925029
1.1863756
1.1777861
1.1709437
1.167657
1.1665793
1.1663918
1.1663872
1.1663952
1.1663983
1.1663987
1.1663987
1.1663986
1.1663986
1.1663986
1.1663986
1.1663986
1.1663986
1.1663986
1.1663986
1.1663986
1.1663986
1.1663986
1.1663986
1.1663986
1.1663986
1.1663986
1.1663986
1.1663986
1.1663986
1.1663986
1.1663986
1.1663986
1.1663986
1.1663986
1.1663986
1.1663986
1.1663986
1.1663986
1.1663986
1.1663986
1.1663986
1.1663986
1.1663986
1.1663986
1.1663986
1.1663986
1.1663986
1.1663986
1.1663986
1.1663986
1.1663986
1.1663986
1.1663986
1.1663986
1.1663986
1.1663986
1.1663986
1.1663986
1.1663986
1.1663986
1.1663986
1.1663986
1.1663986
1.1663986
1.1663986
1.5316205
0.25913074
1.5211306
1.22802
1.1642019
1.3697327
1.1356094
1.2545445
1.172404
1.2061004
1.1861529
1.1905948
1.19092
1.1952889
1.1938314
1.1870486
1.1779919
1.1709483
1.1676341
1.1665685
1.1663899
1.166387
1.1663953
1.1663983
1.1663987
1.1663987
1.1663986
1.1663986
1.1663986
1.1663986
1.1663986
1.1663986
1.1663986
1.1663986
1.1663986
1.1663986
1.1663986
1.1663986
1.1663986
1.1663986
1.1663986
1.1663986
1.1663986
1.1663986
1.1663986
1.1663986
1.1663986
1.1663986
1.1663986
1.1663986
1.1663986
1.1663986
1.1663986
1.1663986
1.1663986
1.1663986
1.1663986
1.1663986
1.1663986
1.1663986
1.1663986
1.1663986
1.1663986
1.1663986
1.1663986
1.1663986
1.1663986
1.1663986
1.1663986
1.1663986
1.1663986
1.1663986
1.1663986
1.1663986
1.1663986
1.1663986
1.1663986
1.1663986
1.1663986
1.1663986
1.5135442
0.2106122
1.5666919
1.1640386
1.144516
1.3988906
1.123296
1.263929
1.1694685
1.2063704
1.185906
1.1908729
1.1909204
1.1961463
1.1944641
1.1871352
1.1777433
1.170722
1.1675343
1.1665433
1.1663874
1.1663873
1.1663956
1.1663984
1.1663987
1.1663987
1.1663986
1.1663986
1.1663986
1.1663986
1.1663986
1.1663986
1.1663986
1.1663986
1.1663986
1.1663986
1.1663986
1.1663986
1.1663986
1.1663986
1.1663986
1.1663986
1.1663986
1.1663986
1.1663986
1.1663986
1.1663986
1.1663986
1.1663986
1.1663986
1.1663986
1.1663986
1.1663986
1.1663986
1.1663986
1.1663986
1.1663986
1.1663986
1.1663986
1.1663986
1.1663986
1.1663986
1.1663986
1.1663986
1.1663986
1.1663986
1.1663986
1.1663986
1.1663986
1.1663986
1.1663986
1.1663986
1.1663986
1.1663986
1.1663986
1.1663986
1.1663986
1.1663986
1.1663986
1.1663986
1.5109016
0.1667304
1.6236947
1.0821288
1.1063191
1.4283475
1.1118077
1.2697935
1.1674312
1.2042623
1.1857265
1.19071
1.1907042
1.1965605
1.1944465
1.1866069
1.1770907
1.1703169
1.167381
1.1665098
1.1663851
1.166388
1.1663961
1.1663985
1.1663987
1.1663987
1.1663986
1.1663986
1.1663986
1.1663986
1.1663986
1.1663986
1.1663986
1.1663986
1.1663986
1.1663986
1.1663986
1.1663986
1.1663986
1.1663986
1.1663986
1.1663986
1.1663986
1.1663986
1.1663986
1.1663986
1.1663986
1.1663986
1.1663986
1.1663986
1.1663986
1.1663986
1.1663986
1.1663986
1.1663986
1.1663986
1.1663986
1.1663986
1.1663986
1.1663986
1.1663986
1.1663986
1.1663986
1.1663986
1.1663986
1.1663986
1.1663986
1.1663986
1.1663986
1.1663986
1.1663986
1.1663986
1.1663986
1.1663986
1.1663986
1.1663986
1.1663986
1.1663986
1.1663986
1.1663986
1.5327679
0.14838481
1.6972766
1.0140976
1.0463306
1.456023
1.10218
1.2702358
1.1658015
1.2015742
1.1845959
1.1901226
1.1906736
1.1966417
1.1939839
1.1856336
1.1761933
1.1698285
1.1672113
1.1664765
1.1663837
1.166389
1.1663966
1.1663985
1.1663987
1.1663987
1.1663986
1.1663986
1.1663986
1.1663986
1.1663986
1.1663986
1.1663986
1.1663986
1.1663986
1.1663986
1.1663986
1.1663986
1.1663986
1.1663986
1.1663986
1.1663986
1.1663986
1.1663986
1.1663986
1.1663986
1.1663986
1.1663986
1.1663986
1.1663986
1.1663986
1.1663986
1.1663986
1.1663986
1.1663986
1.1663986
1.1663986
1.1663986
1.1663986
1.1663986
1.1663986
1.1663986
1.1663986
1.1663986
1.1663986
1.1663986
1.1663986
1.1663986
1.1663986
1.1663986
1.1663986
1.1663986
1.1663986
1.1663986
1.1663986
1.1663986
1.1663986
1.1663986
1.1663986
1.1663986
1.4268904
0.13119883
1.7978294
1.0501237
1.0241978
1.442966
1.0985899
1.2623478
1.1664152
1.1973106
1.1837002
1.1894024
1.1908917
1.1964664
1.1933144
1.184513
1.1752914
1.1693793
1.1670655
1.1664509
1.1663833
1.1663901
1.166397
1.1663986
1.1663987
1.1663987
1.1663986
1.1663986
1.1663986
1.1663986
1.1663986
1.1663986
1.1663986
1.1663986
1.1663986
1.1663986
1.1663986
1.1663986
1.1663986
1.1663986
1.1663986
1.1663986
1.1663986
1.1663986
1.1663986
1.1663986
1.1663986
1.1663986
1.1663986
1.1663986
1.1663986
1.1663986
1.1663986
1.1663986
1.1663986
1.1663986
1.1663986
1.1663986
1.1663986
1.1663986
1.1663986
1.1663986
1.1663986
1.1663986
1.1663986
1.1663986
1.1663986
1.1663986
1.1663986
1.1663986
1.1663986
1.1663986
1.1663986
1.1663986
1.1663986
1.1663986
1.1663986
1.1663986
1.1663986
1.1663986
1.3485151
0.15789726
1.7261227
1.2026673
1.0249839
1.397635
1.108666
1.2436451
1.1708118
1.1931803
1.1833355
1.1887227
1.1912675
1.196133
1.1927996
1.1836163
1.1746589
1.1690836
1.1669763
1.1664368
1.1663835
1.1663908
1.1663973
1.1663986
1.1663987
1.1663986
1.1663986
1.1663986
1.1663986
1.1663986
1.1663986
1.1663986
1.1663986
1.1663986
1.1663986
1.1663986
1.1663986
1.1663986
1.1663986
1.1663986
1.1663986
1.1663986
1.1663986
1.1663986
1.1663986
1.1663986
1.1663986
1.1663986
1.1663986
1.1663986
1.1663986
1.1663986
1.1663986
1.1663986
1.1663986
1.1663986
1.1663986
1.1663986
1.1663986
1.1663986
1.1663986
1.1663986
1.1663986
1.1663986
1.1663986
1.1663986
1.1663986
1.1663986
1.1663986
1.1663986
1.1663986
1.1663986
1.1663986
1.1663986
1.1663986
1.1663986
1.1663986
1.1663986
1.1663986
1.1663986
1.4029112
0.32407589
1.4377592
1.3234842
1.0702239
1.3256471
1.1349874
1.2155914
1.17857
1.1903528
1.1831859
1.1882116
1.1916092
1.195706
1.1927078
1.1833132
1.1745408
1.169042
1.1669707
1.166437
1.1663837
1.1663909
1.1663973
1.1663986
1.1663987
1.1663986
1.1663986
1.1663986
1.1663986
1.1663986
1.1663986
1.1663986
1.1663986
1.1663986
1.1663986
1.1663986
1.1663986
1.1663986
1.1663986
1.1663986
1.1663986
1.1663986
1.1663986
1.1663986
1.1663986
1.1663986
1.1663986
1.1663986
1.1663986
1.1663986
1.1663986
1.1663986
1.1663986
1.1663986
1.1663986
1.1663986
1.1663986
1.1663986
1.1663986
1.1663986
1.1663986
1.1663986
1.1663986
1.1663986
1.1663986
1.1663986
1.1663986
1.1663986
1.1663986
1.1663986
1.1663986
1.1663986
1.1663986
1.1663986
1.1663986
1.1663986
1.1663986
1.1663986
1.1663986
1.1663986
1.4282118
0.39146395
1.3677689
1.3349355
1.0987655
1.2961697
1.1500565
1.2056752
1.1808288
1.1889354
1.1831085
1.1877611
1.1914406
1.1953326
1.1932091
1.1840432
1.1752502
1.1694267
1.1671108
1.1664666
1.1663854
1.16639
1.1663968
1.1663985
1.1663987
1.1663987
1.1663986
1.1663986
1.1663986
1.1663986
1.1663986
1.1663986
1.1663986
1.1663986
1.1663986
1.1663986
1.1663986
1.1663986
1.1663986
1.1663986
1.1663986
1.1663986
1.1663986
1.1663986
1.1663986
1.1663986
1.1663986
1.1663986
1.1663986
1.1663986
1.1663986
1.1663986
1.1663986
1.1663986
1.1663986
1.1663986
1.1663986
1.1663986
1.1663986
1.1663986
1.1663986
1.1663986
1.1663986
1.1663986
1.1663986
1.1663986
1.1663986
1.1663986
1.1663986
1.1663986
1.1663986
1.1663986
1.1663986
1.1663986
1.1663986
1.1663986
1.1663986
1.1663986
1.1663986
1.1663986
1.1262885
1.218183
1.1274427
1.1645325
1.1653966
1.1546744
1.1635427
1.1577029
1.1610166
1.1603701
1.1595853
1.1577486
1.158695
1.1608371
1.1634605
1.1653647
1.1661449
1.1663745
1.1664032
1.1664018
1.1663993
1.1663987
1.1663986
1.1663986
1.1663986
1.1663986
1.1663986
1.1663986
1.1663986
1.1663986
1.1663986
1.1663986
1.1663986
1.1663986
1.1663986
1.1663986
1.1663986
1.1663986
1.1663986
1.1663986
1.1663986
1.1663986
1.1663986
1.1663986
1.1663986
1.1663986
1.1663986
1.1663986
1.1663986
1.1663986
1.1663986
1.1663986
1.1663986
1.1663986
1.1663986
1.1663986
1.1663986
1.1663986
1.1663986
1.1663986
1.1663986
1.1663986
1.1663986
1.1663986
1.1663986
1.1663986
1.1663986
1.1663986
1.1663986
1.1663986
1.1663986
1.1663986
1.1663986
1.1663986
1.1663986
1.1663986
1.1663986
1.1663986
1.1663986
1.1663986
1.1239818
1.2196311
1.1254196
1.1655561
1.1660285
1.1542816
1.1636683
1.1577439
1.1607295
1.1596757
1.158935
1.1572168
1.1580081
1.1604439
1.1631597
1.1652062
1.166089
1.166365
1.1664033
1.1664024
1.1663995
1.1663987
1.1663986
1.1663986
1.1663986
1.1663986
1.1663986
1.1663986
1.1663986
1.1663986
1.1663986
1.1663986
1.1663986
1.1663986
1.1663986
1.1663986
1.1663986
1.1663986
1.1663986
1.1663986
1.1663986
1.1663986
1.1663986
1.1663986
1.1663986
1.1663986
1.1663986
1.1663986
1.1663986
1.1663986
1.1663986
1.1663986
1.1663986
1.1663986
1.1663986
1.1663986
1.1663986
1.1663986
1.1663986
1.1663986
1.1663986
1.1663986
1.1663986
1.1663986
1.1663986
1.1663986
1.1663986
1.1663986
1.1663986
1.1663986
1.1663986
1.1663986
1.1663986
1.1663986
1.1663986
1.1663986
1.1663986
1.1663986
1.1663986
1.1663986
1.1230545
1.2162437
1.126168
1.1639327
1.1648748
1.1529514
1.1627609
1.1563736
1.1602887
1.1586674
1.158341
1.1569524
1.1578381
1.1604759
1.1631933
1.1652163
1.1660888
1.1663638
1.1664029
1.1664023
1.1663995
1.1663987
1.1663986
1.1663986
1.1663986
1.1663986
1.1663986
1.1663986
1.1663986
1.1663986
1.1663986
1.1663986
1.1663986
1.1663986
1.1663986
1.1663986
1.1663986
1.1663986
1.1663986
1.1663986
1.1663986
1.1663986
1.1663986
1.1663986
1.1663986
1.1663986
1.1663986
1.1663986
1.1663986
1.1663986
1.1663986
1.1663986
1.1663986
1.1663986
1.1663986
1.1663986
1.1663986
1.1663986
1.1663986
1.1663986
1.1663986
1.1663986
1.1663986
1.1663986
1.1663986
1.1663986
1.1663986
1.1663986
1.1663986
1.1663986
1.1663986
1.1663986
1.1663986
1.1663986
1.1663986
1.1663986
1.1663986
1.1663986
1.1663986
1.1663986
1.1245481
1.2145818
1.1273683
1.1639019
1.1648333
1.153113
1.1627985
1.1565076
1.1603663
1.1587951
1.1585718
1.1571748
1.1580516
1.1606053
1.1632559
1.1652345
1.1660923
1.1663637
1.1664028
1.1664022
1.1663995
1.1663987
1.1663986
1.1663986
1.1663986
1.1663986
1.1663986
1.1663986
1.1663986
1.1663986
1.1663986
1.1663986
1.1663986
1.1663986
1.1663986
1.1663986
1.1663986
1.1663986
1.1663986
1.1663986
1.1663986
1.1663986
1.1663986
1.1663986
1.1663986
1.1663986
1.1663986
1.1663986
1.1663986
1.1663986
1.1663986
1.1663986
1.1663986
1.1663986
1.1663986
1.1663986
1.1663986
1.1663986
1.1663986
1.1663986
1.1663986
1.1663986
1.1663986
1.1663986
1.1663986
1.1663986
1.1663986
1.1663986
1.1663986
1.1663986
1.1663986
1.1663986
1.1663986
1.1663986
1.1663986
1.1663986
1.1663986
1.1663986
1.1663986
1.1663986
1.1255904
1.2132063
1.1284386
1.1639294
1.1647555
1.1534352
1.1628548
1.1567228
1.1604971
1.1590007
1.1588053
1.1574391
1.1582709
1.1607414
1.1633176
1.1652524
1.1660953
1.1663635
1.1664026
1.1664022
1.1663995
1.1663987
1.1663986
1.1663986
1.1663986
1.1663986
1.1663986
1.1663986
1.1663986
1.1663986
1.1663986
1.1663986
1.1663986
1.1663986
1.1663986
1.1663986
1.1663986
1.1663986
1.1663986
1.1663986
1.1663986
1.1663986
1.1663986
1.1663986
1.1663986
1.1663986
1.1663986
1.1663986
1.1663986
1.1663986
1.1663986
1.1663986
1.1663986
1.1663986
1.1663986
1.1663986
1.1663986
1.1663986
1.1663986
1.1663986
1.1663986
1.1663986
1.1663986
1.1663986
1.1663986
1.1663986
1.1663986
1.1663986
1.1663986
1.1663986
1.1663986
1.1663986
1.1663986
1.1663986
1.1663986
1.1663986
1.1663986
1.1663986
1.1663986
1.1663986
1.1267258
1.21195
1.1295544
1.1640008
1.1647668
1.153814
1.1629681
1.1569825
1.1606563
1.159219
1.1590369
1.157694
1.1584767
1.1608708
1.1633757
1.1652691
1.1660981
1.1663632
1.1664024
1.1664021
1.1663995
1.1663987
1.1663986
1.1663986
1.1663986
1.1663986
1.1663986
1.1663986
1.1663986
1.1663986
1.1663986
1.1663986
1.1663986
1.1663986
1.1663986
1.1663986
1.1663986
1.1663986
1.1663986
1.1663986
1.1663986
1.1663986
1.1663986
1.1663986
1.1663986
1.1663986
1.1663986
1.1663986
1.1663986
1.1663986
1.1663986
1.1663986
1.1663986
1.1663986
1.1663986
1.1663986
1.1663986
1.1663986
1.1663986
1.1663986
1.1663986
1.1663986
1.1663986
1.1663986
1.1663986
1.1663986
1.1663986
1.1663986
1.1663986
1.1663986
1.1663986
1.1663986
1.1663986
1.1663986
1.1663986
1.1663986
1.1663986
1.1663986
1.1663986
1.1663986
1.1277997
1.2107299
1.1306284
1.1640585
1.164771
1.1541731
1.1630721
1.1572282
1.1608062
1.1594246
1.1592568
1.1579388
1.158676
1.160997
1.1634331
1.1652859
1.166101
1.1663631
1.1664022
1.166402
1.1663995
1.1663987
1.1663986
1.1663986
1.1663986
1.1663986
1.1663986
1.1663986
1.1663986
1.1663986
1.1663986
1.1663986
1.1663986
1.1663986
1.1663986
1.1663986
1.1663986