/*--------------------------------*- C++ -*----------------------------------*\
| =========                 |                                                 |
| \\      /  F ield         | OpenFOAM: The Open Source CFD Toolbox           |
|  \\    /   O peration     | Version:  2406                                  |
|   \\  /    A nd           | Website:  www.openfoam.com                      |
|    \\/     M anipulation  |                                                 |
\*---------------------------------------------------------------------------*/
FoamFile
{
    version     2.0;
    format      ascii;
    arch        "LSB;label=32;scalar=64";
    class       volScalarField;
    location    "0.00012";
    object      T;
}
// * * * * * * * * * * * * * * * * * * * * * * * * * * * * * * * * * * * * * //

dimensions      [0 0 0 1 0 0 0];

internalField   nonuniform List<scalar> 
16000
(
299.02892
296.70404
298.59578
297.91801
298.11888
298.01288
298.08273
298.04111
298.06536
298.04257
298.05769
298.05985
298.06716
298.05075
298.03091
298.01152
298.00269
297.99983
297.99984
297.99993
298
298
298
298
298
298
298
298
298
298
298
298
298
298
298
298
298
298
298
298
298
298
298
298
298
298
298
298
298
298
298
298
298
298
298
298
298
298
298
298
298
298
298
298
298
298
298
298
298
298
298
298
298
298
298
298
298
298
298
298
298.70156
297.46421
298.4216
298.14535
298.21503
298.15771
298.19003
298.1734
298.18651
298.16465
298.1808
298.19982
298.2138
298.17117
298.10785
298.04451
298.01364
298.00213
297.99999
297.99986
297.99995
297.99999
298
298
298
298
298
298
298
298
298
298
298
298
298
298
298
298
298
298
298
298
298
298
298
298
298
298
298
298
298
298
298
298
298
298
298
298
298
298
298
298
298
298
298
298
298
298
298
298
298
298
298
298
298
298
298
298
298
298
298.5382
298.17645
298.1416
298.46616
298.28828
298.3323
298.30024
298.32735
298.31512
298.29776
298.30263
298.34402
298.36837
298.30819
298.20284
298.09207
298.031
298.00609
298.00041
297.99979
297.9999
297.99998
298
298
298
298
298
298
298
298
298
298
298
298
298
298
298
298
298
298
298
298
298
298
298
298
298
298
298
298
298
298
298
298
298
298
298
298
298
298
298
298
298
298
298
298
298
298
298
298
298
298
298
298
298
298
298
298
298
298
298.23571
299.16677
297.53625
298.98777
298.30433
298.54466
298.40781
298.49395
298.4494
298.4365
298.42125
298.48942
298.52692
298.46155
298.31748
298.15299
298.05487
298.01201
298.00117
297.9997
297.99983
297.99996
298
298
298
298
298
298
298
298
298
298
298
298
298
298
298
298
298
298
298
298
298
298
298
298
298
298
298
298
298
298
298
298
298
298
298
298
298
298
298
298
298
298
298
298
298
298
298
298
298
298
298
298
298
298
298
298
298
298
297.97942
300.19183
296.87237
299.60308
298.22857
298.80126
298.48715
298.68989
298.58198
298.58141
298.53798
298.63965
298.68954
298.62851
298.44968
298.22812
298.08643
298.02057
298.00248
297.99963
297.99975
297.99993
298
298
298
298
298
298
298
298
298
298
298
298
298
298
298
298
298
298
298
298
298
298
298
298
298
298
298
298
298
298
298
298
298
298
298
298
298
298
298
298
298
298
298
298
298
298
298
298
298
298
298
298
298
298
298
298
298
298
297.60801
301.51265
296.03552
300.34227
298.17842
299.02846
298.56523
298.88511
298.71401
298.74664
298.65635
298.79197
298.85639
298.80692
298.5987
298.31807
298.12664
298.03233
298.00456
297.99962
297.99965
297.99989
297.99999
298
298
298
298
298
298
298
298
298
298
298
298
298
298
298
298
298
298
298
298
298
298
298
298
298
298
298
298
298
298
298
298
298
298
298
298
298
298
298
298
298
298
298
298
298
298
298
298
298
298
298
298
298
298
298
298
298
297.12632
303.16845
294.95899
301.24437
298.10394
299.26754
298.65094
299.0816
298.85542
298.92351
298.77669
298.9519
299.02789
298.9955
298.76354
298.4231
298.17621
298.04783
298.00758
297.9997
297.99954
297.99984
297.99998
298
298
298
298
298
298
298
298
298
298
298
298
298
298
298
298
298
298
298
298
298
298
298
298
298
298
298
298
298
298
298
298
298
298
298
298
298
298
298
298
298
298
298
298
298
298
298
298
298
298
298
298
298
298
298
298
298
296.47208
305.29334
293.61777
302.33089
297.98557
299.54326
298.75207
299.2646
299.02535
299.09685
298.89609
299.12899
299.20596
299.1926
298.94321
298.54324
298.23579
298.06752
298.01176
297.99992
297.99942
297.99977
297.99997
298
298
298
298
298
298
298
298
298
298
298
298
298
298
298
298
298
298
298
298
298
298
298
298
298
298
298
298
298
298
298
298
298
298
298
298
298
298
298
298
298
298
298
298
298
298
298
298
298
298
298
298
298
298
298
298
298
295.65538
307.94359
292.01883
303.61002
297.85071
299.81964
298.89247
299.44289
299.20252
299.26835
299.05577
299.29007
299.39658
299.40023
299.13743
298.67942
298.30591
298.09186
298.01727
298.00033
297.99929
297.99969
297.99996
298
298
298
298
298
298
298
298
298
298
298
298
298
298
298
298
298
298
298
298
298
298
298
298
298
298
298
298
298
298
298
298
298
298
298
298
298
298
298
298
298
298
298
298
298
298
298
298
298
298
298
298
298
298
298
298
298
294.66829
311.28944
290.08095
305.16438
297.66397
300.10541
299.08825
299.61469
299.39159
299.46263
299.22386
299.44167
299.59944
299.62585
299.34686
298.83192
298.38728
298.1213
298.02434
298.00099
297.99915
297.9996
297.99994
298
298
298
298
298
298
298
298
298
298
298
298
298
298
298
298
298
298
298
298
298
298
298
298
298
298
298
298
298
298
298
298
298
298
298
298
298
298
298
298
298
298
298
298
298
298
298
298
298
298
298
298
298
298
298
298
298
293.37512
315.78683
287.60929
307.12765
297.41176
300.34102
299.41384
299.76829
299.5897
299.68408
299.40539
299.59467
299.80474
299.87137
299.57468
299.00144
298.48066
298.15633
298.03318
298.00195
297.99901
297.9995
297.99992
298
298
298
298
298
298
298
298
298
298
298
298
298
298
298
298
298
298
298
298
298
298
298
298
298
298
298
298
298
298
298
298
298
298
298
298
298
298
298
298
298
298
298
298
298
298
298
298
298
298
298
298
298
298
298
298
298
291.61924
322.06556
284.43493
309.65352
297.08091
300.65711
299.73126
299.93697
299.80393
299.93856
299.60102
299.75336
300.01316
300.13646
299.82224
299.18973
298.58725
298.19763
298.04405
298.00327
297.99888
297.99938
297.99989
298
298
298
298
298
298
298
298
298
298
298
298
298
298
298
298
298
298
298
298
298
298
298
298
298
298
298
298
298
298
298
298
298
298
298
298
298
298
298
298
298
298
298
298
298
298
298
298
298
298
298
298
298
298
298
298
298
289.47299
330.53226
280.58135
312.83408
296.65961
301.05952
300.09054
300.10966
300.0457
300.21399
299.81319
299.93068
300.21984
300.42511
300.08959
299.3982
298.70844
298.24602
298.05726
298.00503
297.99876
297.99925
297.99985
297.99999
298
298
298
298
298
298
298
298
298
298
298
298
298
298
298
298
298
298
298
298
298
298
298
298
298
298
298
298
298
298
298
298
298
298
298
298
298
298
298
298
298
298
298
298
298
298
298
298
298
298
298
298
298
298
298
298
287.02493
341.67734
276.07748
316.80725
296.15849
301.54792
300.51525
300.28483
300.32308
300.51583
300.04569
300.13124
300.43149
300.73027
300.38068
299.62882
298.84584
298.30241
298.07315
298.00732
297.99867
297.9991
297.9998
297.99999
298
298
298
298
298
298
298
298
298
298
298
298
298
298
298
298
298
298
298
298
298
298
298
298
298
298
298
298
298
298
298
298
298
298
298
298
298
298
298
298
298
298
298
298
298
298
298
298
298
298
298
298
298
298
298
298
284.00476
357.44021
270.65887
321.97705
295.55945
302.15737
301.03707
300.46524
300.65028
300.8515
300.30735
300.35649
300.66145
301.05234
300.69671
299.88383
299.001
298.36773
298.09208
298.01022
297.99861
297.99894
297.99975
297.99998
298.00001
298
298
298
298
298
298
298
298
298
298
298
298
298
298
298
298
298
298
298
298
298
298
298
298
298
298
298
298
298
298
298
298
298
298
298
298
298
298
298
298
298
298
298
298
298
298
298
298
298
298
298
298
298
298
298
280.10497
381.0402
264.04633
328.82555
294.87758
302.94551
301.6906
300.65177
301.04416
301.22233
300.60945
300.61395
300.91773
301.39972
301.04202
300.16642
299.17562
298.44279
298.11436
298.01381
297.99859
297.99876
297.99968
297.99997
298.00001
298
298
298
298
298
298
298
298
298
298
298
298
298
298
298
298
298
298
298
298
298
298
298
298
298
298
298
298
298
298
298
298
298
298
298
298
298
298
298
298
298
298
298
298
298
298
298
298
298
298
298
298
298
298
298
275.20987
416.1694
256.61775
337.42447
294.07494
304.02507
302.49108
300.87007
301.51845
301.63056
300.95128
300.90212
301.20239
301.78091
301.42409
300.48108
299.37155
298.52826
298.14013
298.01811
297.99862
297.99857
297.99961
297.99996
298.00001
298
298
298
298
298
298
298
298
298
298
298
298
298
298
298
298
298
298
298
298
298
298
298
298
298
298
298
298
298
298
298
298
298
298
298
298
298
298
298
298
298
298
298
298
298
298
298
298
298
298
298
298
298
298
298
269.65032
471.28317
248.38761
348.28273
293.19218
305.42319
303.48996
301.13175
302.07191
302.07327
301.32173
301.21066
301.50601
302.19307
301.84431
300.82871
299.58864
298.62384
298.16913
298.02304
297.99869
297.99835
297.99952
297.99995
298.00001
298
298
298
298
298
298
298
298
298
298
298
298
298
298
298
298
298
298
298
298
298
298
298
298
298
298
298
298
298
298
298
298
298
298
298
298
298
298
298
298
298
298
298
298
298
298
298
298
298
298
298
298
298
298
298
262.63103
565.36902
239.17724
362.93392
292.23347
307.22018
304.79194
301.45699
302.72168
302.55071
301.71046
301.53315
301.82051
302.62194
302.28697
301.19748
299.82036
298.72631
298.20016
298.02834
297.99877
297.99813
297.99944
297.99994
298.00001
298
298
298
298
298
298
298
298
298
298
298
298
298
298
298
298
298
298
298
298
298
298
298
298
298
298
298
298
298
298
298
298
298
298
298
298
298
298
298
298
298
298
298
298
298
298
298
298
298
298
298
298
298
298
298
244.54966
866.31297
222.83631
387.34808
290.33097
310.17367
306.31228
301.908
303.40321
303.02595
302.07781
301.86965
302.16009
303.05173
302.71843
301.56183
300.04891
298.82664
298.23028
298.03343
297.99884
297.99791
297.99936
297.99993
298.00001
298
298
298
298
298
298
298
298
298
298
298
298
298
298
298
298
298
298
298
298
298
298
298
298
298
298
298
298
298
298
298
298
298
298
298
298
298
298
298
298
298
298
298
298
298
298
298
298
298
298
298
298
298
298
298
212.91069
1000
195.267
421.07406
286.50027
313.96583
308.32797
302.06819
304.2069
303.36945
302.41768
302.21921
302.54059
303.4527
303.10684
301.88624
300.2467
298.91075
298.25471
298.03729
297.99882
297.99772
297.9993
297.99993
298.00001
298
298
298
298
298
298
298
298
298
298
298
298
298
298
298
298
298
298
298
298
298
298
298
298
298
298
298
298
298
298
298
298
298
298
298
298
298
298
298
298
298
298
298
298
298
298
298
298
298
298
298
298
298
298
298
188.5526
1000
175.72389
439.50402
281.08543
318.27038
310.42065
302.1268
304.98503
303.63836
302.64417
302.5507
302.90023
303.78176
303.42236
302.13939
300.38645
298.96302
298.26766
298.03867
297.99863
297.99759
297.99927
297.99993
298.00001
298
298
298
298
298
298
298
298
298
298
298
298
298
298
298
298
298
298
298
298
298
298
298
298
298
298
298
298
298
298
298
298
298
298
298
298
298
298
298
298
298
298
298
298
298
298
298
298
298
298
298
298
298
298
298
172.30961
1000
167.79959
444.53961
274.86617
321.27272
312.25878
302.24851
305.44284
303.89416
302.61052
302.91012
303.06782
304.01536
303.68239
302.29892
300.44393
298.97026
298.26461
298.03671
297.99824
297.99753
297.99929
297.99993
298.00001
298
298
298
298
298
298
298
298
298
298
298
298
298
298
298
298
298
298
298
298
298
298
298
298
298
298
298
298
298
298
298
298
298
298
298
298
298
298
298
298
298
298
298
298
298
298
298
298
298
298
298
298
298
298
298
160.93684
1000
161.60518
450.8068
269.21571
322.22325
313.58491
302.49251
305.25668
304.23263
302.4028
303.1401
303.08636
304.17581
303.83393
302.34157
300.40875
298.92899
298.24515
298.03161
297.99772
297.99758
297.99935
297.99994
298.00001
298
298
298
298
298
298
298
298
298
298
298
298
298
298
298
298
298
298
298
298
298
298
298
298
298
298
298
298
298
298
298
298
298
298
298
298
298
298
298
298
298
298
298
298
298
298
298
298
298
298
298
298
298
298
298
148.75742
1000
151.64051
455.31268
265.16654
319.52822
314.6212
303.36369
304.21719
304.61034
302.19385
303.09152
303.09515
304.28754
303.86057
302.26109
300.28896
298.84877
298.21382
298.02461
297.99722
297.99772
297.99945
297.99996
298.00001
298
298
298
298
298
298
298
298
298
298
298
298
298
298
298
298
298
298
298
298
298
298
298
298
298
298
298
298
298
298
298
298
298
298
298
298
298
298
298
298
298
298
298
298
298
298
298
298
298
298
298
298
298
298
298
133.75991
1000
145.71538
438.20967
263.52615
315.37171
313.69766
304.92643
302.73039
304.59949
301.94798
302.9954
303.13503
304.33762
303.79997
302.08731
300.11472
298.74896
298.17832
298.01752
297.99689
297.99793
297.99955
297.99997
298.00001
298
298
298
298
298
298
298
298
298
298
298
298
298
298
298
298
298
298
298
298
298
298
298
298
298
298
298
298
298
298
298
298
298
298
298
298
298
298
298
298
298
298
298
298
298
298
298
298
298
298
298
298
298
298
298
119.66889
1000
167.55667
403.27338
274.32089
310.13472
310.37278
305.99647
301.55765
304.14582
301.77977
302.88164
303.21632
304.3345
303.69301
301.87813
299.93499
298.65561
298.14742
298.012
297.99677
297.99814
297.99965
297.99999
298.00001
298
298
298
298
298
298
298
298
298
298
298
298
298
298
298
298
298
298
298
298
298
298
298
298
298
298
298
298
298
298
298
298
298
298
298
298
298
298
298
298
298
298
298
298
298
298
298
298
298
298
298
298
298
298
298
129.53055
1000
190.05145
387.4399
280.53157
310.14965
304.4902
306.52224
300.86259
303.55997
301.71946
302.77055
303.31898
304.29562
303.60948
301.70981
299.80828
298.59406
298.12846
298.00895
297.99679
297.9983
297.9997
297.99999
298.00001
298
298
298
298
298
298
298
298
298
298
298
298
298
298
298
298
298
298
298
298
298
298
298
298
298
298
298
298
298
298
298
298
298
298
298
298
298
298
298
298
298
298
298
298
298
298
298
298
298
298
298
298
298
298
298
189.12576
1000
185.73353
388.52544
285.84916
311.40532
300.52313
305.74175
301.09178
303.08401
301.69925
302.68404
303.40394
304.23151
303.60219
301.65942
299.78831
298.58694
298.12765
298.00904
297.99683
297.99832
297.9997
297.99999
298.00001
298
298
298
298
298
298
298
298
298
298
298
298
298
298
298
298
298
298
298
298
298
298
298
298
298
298
298
298
298
298
298
298
298
298
298
298
298
298
298
298
298
298
298
298
298
298
298
298
298
298
298
298
298
298
298
204.13918
1000
183.64545
381.48622
289.44302
311.28628
300.38635
305.01106
301.38372
302.81885
301.68977
302.59983
303.37798
304.16976
303.71051
301.82029
299.9445
298.67302
298.15903
298.01565
297.99724
297.99813
297.99959
297.99998
298.00001
298
298
298
298
298
298
298
298
298
298
298
298
298
298
298
298
298
298
298
298
298
298
298
298
298
298
298
298
298
298
298
298
298
298
298
298
298
298
298
298
298
298
298
298
298
298
298
298
298
298
298
298
298
298
298
308.02796
279.566
309.84228
292.65345
297.81682
296.63722
296.83284
296.49209
296.90182
296.85534
296.64522
296.23185
296.40143
296.8743
297.40869
297.79293
297.94934
297.99522
298.00092
298.00064
298.00013
298.00001
298
298
298
298
298
298
298
298
298
298
298
298
298
298
298
298
298
298
298
298
298
298
298
298
298
298
298
298
298
298
298
298
298
298
298
298
298
298
298
298
298
298
298
298
298
298
298
298
298
298
298
298
298
298
298
298
298
298
308.78032
279.31293
310.39456
292.43041
297.67676
296.52055
296.79014
296.42447
296.7831
296.65898
296.48072
296.10397
296.24422
296.78059
297.34318
297.75993
297.93804
297.9934
298.00096
298.00076
298.00018
298.00001
298
298
298
298
298
298
298
298
298
298
298
298
298
298
298
298
298
298
298
298
298
298
298
298
298
298
298
298
298
298
298
298
298
298
298
298
298
298
298
298
298
298
298
298
298
298
298
298
298
298
298
298
298
298
298
298
298
298
308.24467
279.62941
309.44092
292.47655
297.42107
296.36951
296.38238
296.33885
296.57458
296.49199
296.35376
296.04633
296.21671
296.78434
297.3494
297.76175
297.93793
297.99314
298.0009
298.00075
298.00018
298.00002
298
298
298
298
298
298
298
298
298
298
298
298
298
298
298
298
298
298
298
298
298
298
298
298
298
298
298
298
298
298
298
298
298
298
298
298
298
298
298
298
298
298
298
298
298
298
298
298
298
298
298
298
298
298
298
298
298
298
307.71828
280.15432
309.04089
292.56217
297.37246
296.40385
296.39532
296.3518
296.5762
296.5103
296.39869
296.09066
296.2605
296.81006
297.36192
297.76534
297.93861
297.99311
298.00086
298.00073
298.00018
298.00002
298
298
298
298
298
298
298
298
298
298
298
298
298
298
298
298
298
298
298
298
298
298
298
298
298
298
298
298
298
298
298
298
298
298
298
298
298
298
298
298
298
298
298
298
298
298
298
298
298
298
298
298
298
298
298
298
298
298
307.39933
280.60221
308.68422
292.695
297.37019
296.43864
296.42607
296.3893
296.60584
296.55095
296.44656
296.14556
296.30644
296.8376
297.37434
297.76887
297.93921
297.99307
298.00082
298.00072
298.00018
298.00002
298
298
298
298
298
298
298
298
298
298
298
298
298
298
298
298
298
298
298
298
298
298
298
298
298
298
298
298
298
298
298
298
298
298
298
298
298
298
298
298
298
298
298
298
298
298
298
298
298
298
298
298
298
298
298
298
298
298
307.09723
281.06236
308.34692
292.83983
297.38128
296.48852
296.4708
296.43349
296.64247
296.59368
296.49413
296.19858
296.34966
296.8637
297.38602
297.7722
297.93974
297.99302
298.00078
298.0007
298.00017
298.00002
298
298
298
298
298
298
298
298
298
298
298
298
298
298
298
298
298
298
298
298
298
298
298
298
298
298
298
298
298
298
298
298
298
298
298
298
298
298
298
298
298
298
298
298
298
298
298
298
298
298
298
298
298
298
298
298
298
298
306.81181
281.50512
308.02083
292.98319
297.38994
296.53546
296.51258
296.47596
296.6769
296.63421
296.53926
296.24948
296.39151
296.88917
297.39756
297.77553
297.9403
297.99298
298.00074
298.00069
298.00017
298.00002
298
298
298
298
298
298
298
298
298
298
298
298
298
298
298
298
298
298
298
298
298
298
298
298
298
298
298
298
298
298
298
298
298
298
298
298
298
298
298
298
298
298
298
298
298
298
298
298
298
298
298
298
298
298
298
298
298
298
306.53603
281.9373
307.70675
293.12178
297.39905
296.58093
296.55323
296.51711
296.71062
296.67361
296.58314
296.29913
296.43272
296.91442
297.40914
297.77893
297.94089
297.99295
298.00071
298.00068
298.00017
298.00002
298
298
298
298
298
298
298
298
298
298
298
298
298
298
298
298
298
298
298
298
298
298
298
298
298
298
298
298
298
298
298
298
298
298
298
298
298
298
298
298
298
298
298
298
298
298
298
298
298
298
298
298
298
298
298
298
298
298
306.26701
282.36393
307.40137
293.25706
297.40895
296.62533
296.5934
296.55772
296.74408
296.71244
296.6263
296.34807
296.47371
296.93971
297.42091
297.78245
297.94154
297.99292
298.00067
298.00066
298.00017
298.00002
298
298
298
298
298
298
298
298
298
298
298
298
298
298
298
298
298
298
298
298
298
298
298
298
298
298
298
298
298
298
298
298
298
298
298
298
298
298
298
298
298
298
298
298
298
298
298
298
298
298
298
298
298
298
298
298
298
298
306.00292
282.7871
307.10182
293.39057
297.41948
296.66908
296.63337
296.59796
296.77757
296.75093
296.6689
296.39659
296.51469
296.96522
297.43294
297.78613
297.94224
297.99292
298.00064
298.00065
298.00017
298.00002
298
298
298
298
298
298
298
298
298
298
298
298
298
298
298
298
298
298
298
298
298
298
298
298
298
298
298
298
298
298
298
298
298
298
298
298
298
298
298
298
298
298
298
298
298
298
298
298
298
298
298
298
298
298
298
298
298
298
305.74285
283.21206
306.80484
293.52345
297.43092
296.71243
296.67354
296.6382
296.81138
296.7894
296.71133
296.44505
296.55602
296.99117
297.44538
297.79001
297.94302
297.99292
298.00061
298.00064
298.00017
298.00002
298
298
298
298
298
298
298
298
298
298
298
298
298
298
298
298
298
298
298
298
298
298
298
298
298
298
298
298
298
298
298
298
298
298
298
298
298
298
298
298
298
298
298
298
298
298
298
298
298
298
298
298
298
298
298
298
298
298
305.48489
283.64119
306.50792
293.65697
297.44321
296.75573
296.71413
296.67869
296.84573
296.8281
296.75379
296.49378
296.59797
297.01779
297.45834
297.79415
297.94389
297.99295
298.00057
298.00062
298.00017
298.00002
298
298
298
298
298
298
298
298
298
298
298
298
298
298
298
298
298
298
298
298
298
298
298
298
298
298
298
298
298
298
298
298
298
298
298
298
298
298
298
298
298
298
298
298
298
298
298
298
298
298
298
298
298
298
298
298
298
298
305.22441
284.07859
306.20829
293.792
297.45653
296.79912
296.75545
296.71975
296.88088
296.86734
296.79661
296.54313
296.64089
297.04531
297.47196
297.79861
297.94486
297.99299
298.00054
298.00061
298.00016
298.00002
298
298
298
298
298
298
298
298
298
298
298
298
298
298
298
298
298
298
298
298
298
298
298
298
298
298
298
298
298
298
298
298
298
298
298
298
298
298
298
298
298
298
298
298
298
298
298
298
298
298
298
298
298
298
298
298
298
298
304.95927
284.52826
305.90361
293.92996
297.47098
296.84299
296.79783
296.76169
296.91713
296.90738
296.84007
296.59345
296.68509
297.07396
297.48638
297.80343
297.94596
297.99305
298.00051
298.00059
298.00016
298.00002
298
298
298
298
298
298
298
298
298
298
298
298
298
298
298
298
298
298
298
298
298
298
298
298
298
298
298
298
298
298
298
298
298
298
298
298
298
298
298
298
298
298
298
298
298
298
298
298
298
298
298
298
298
298
298
298
298
298
304.68765
284.99344
305.59118
294.07205
297.48662
296.88766
296.84157
296.80476
296.95475
296.94856
296.88447
296.64512
296.7309
297.10397
297.50171
297.80866
297.9472
297.99314
298.00048
298.00057
298.00016
298.00002
298
298
298
298
298
298
298
298
298
298
298
298
298
298
298
298
298
298
298
298
298
298
298
298
298
298
298
298
298
298
298
298
298
298
298
298
298
298
298
298
298
298
298
298
298
298
298
298
298
298
298
298
298
298
298
298
298
298
304.40711
285.47874
305.26861
294.21925
297.50371
296.93341
296.88695
296.84942
296.99405
296.9912
296.93018
296.69853
296.77872
297.13563
297.51814
297.81439
297.94859
297.99326
298.00045
298.00055
298.00015
298.00002
298
298
298
298
298
298
298
298
298
298
298
298
298
298
298
298
298
298
298
298
298
298
298
298
298
298
298
298
298
298
298
298
298
298
298
298
298
298
298
298
298
298
298
298
298
298
298
298
298
298
298
298
298
298
298
298
298
298
304.11603
285.98772
304.93408
294.37288
297.52247
296.98069
296.93428
296.89603
297.03532
297.03561
296.97755
296.75408
296.8289
297.16922
297.53581
297.82066
297.95016
297.9934
298.00042
298.00053
298.00015
298.00002
298
298
298
298
298
298
298
298
298
298
298
298
298
298
298
298
298
298
298
298
298
298
298
298
298
298
298
298
298
298
298
298
298
298
298
298
298
298
298
298
298
298
298
298
298
298
298
298
298
298
298
298
298
298
298
298
298
298
303.81199
286.52493
304.58511
294.53414
297.54307
297.02971
296.98402
296.94496
297.0789
297.08216
297.02692
296.81219
296.88185
297.205
297.55489
297.82755
297.95193
297.99358
298.00039
298.00051
298.00015
298.00002
298
298
298
298
298
298
298
298
298
298
298
298
298
298
298
298
298
298
298
298
298
298
298
298
298
298
298
298
298
298
298
298
298
298
298
298
298
298
298
298
298
298
298
298
298
298
298
298
298
298
298
298
298
298
298
298
298
298
303.49247
287.09529
304.21942
294.70422
297.56565
297.08076
297.03663
296.99659
297.12522
297.13121
297.07868
296.87331
296.93799
297.24329
297.57557
297.83513
297.95391
297.9938
298.00036
298.00049
298.00014
298.00002
298
298
298
298
298
298
298
298
298
298
298
298
298
298
298
298
298
298
298
298
298
298
298
298
298
298
298
298
298
298
298
298
298
298
298
298
298
298
298
298
298
298
298
298
298
298
298
298
298
298
298
298
298
298
298
298
298
298
303.15578
287.70266
303.83563
294.88422
297.59077
297.13415
297.0926
297.05122
297.17471
297.18312
297.13319
296.93787
296.99775
297.28439
297.598
297.84346
297.95613
297.99406
298.00033
298.00046
298.00013
298.00001
298
298
298
298
298
298
298
298
298
298
298
298
298
298
298
298
298
298
298
298
298
298
298
298
298
298
298
298
298
298
298
298
298
298
298
298
298
298
298
298
298
298
298
298
298
298
298
298
298
298
298
298
298
298
298
298
298
298
302.79943
288.35289
303.4314
295.07461
297.61943
297.19009
297.15249
297.10933
297.22778
297.23833
297.19097
297.00638
297.06159
297.32865
297.62239
297.85264
297.95862
297.99436
298.0003
298.00044
298.00013
298.00001
298
298
298
298
298
298
298
298
298
298
298
298
298
298
298
298
298
298
298
298
298
298
298
298
298
298
298
298
298
298
298
298
298
298
298
298
298
298
298
298
298
298
298
298
298
298
298
298
298
298
298
298
298
298
298
298
298
298
302.42388
289.05133
303.00514
295.27652
297.65197
297.24923
297.21698
297.17157
297.28468
297.29729
297.25255
297.07931
297.13007
297.3764
297.64896
297.86272
297.96139
297.99471
298.00027
298.00041
298.00012
298.00001
298
298
298
298
298
298
298
298
298
298
298
298
298
298
298
298
298
298
298
298
298
298
298
298
298
298
298
298
298
298
298
298
298
298
298
298
298
298
298
298
298
298
298
298
298
298
298
298
298
298
298
298
298
298
298
298
298
298
302.02524
289.8042
302.55443
295.49133
297.68893
297.31216
297.28688
297.23848
297.34601
297.36033
297.31847
297.15723
297.20376
297.42803
297.67791
297.87381
297.96447
297.99511
298.00024
298.00037
298.00011
298.00001
298
298
298
298
298
298
298
298
298
298
298
298
298
298
298
298
298
298
298
298
298
298
298
298
298
298
298
298
298
298
298
298
298
298
298
298
298
298
298
298
298
298
298
298
298
298
298
298
298
298
298
298
298
298
298
298
298
298
301.60093
290.61793
302.07725
295.72126
297.73079
297.37879
297.36237
297.31132
297.41233
297.42725
297.38905
297.2412
297.28335
297.48409
297.7095
297.88599
297.96788
297.99556
298.00022
298.00034
298.0001
298.00001
298
298
298
298
298
298
298
298
298
298
298
298
298
298
298
298
298
298
298
298
298
298
298
298
298
298
298
298
298
298
298
298
298
298
298
298
298
298
298
298
298
298
298
298
298
298
298
298
298
298
298
298
298
298
298
298
298
298
301.1483
291.50114
301.57052
295.9703
297.77619
297.45032
297.44322
297.3912
297.48405
297.49857
297.46455
297.33216
297.36955
297.54512
297.74399
297.89936
297.97166
297.99607
298.00019
298.0003
298.00009
298.00001
298
298
298
298
298
298
298
298
298
298
298
298
298
298
298
298
298
298
298
298
298
298
298
298
298
298
298
298
298
298
298
298
298
298
298
298
298
298
298
298
298
298
298
298
298
298
298
298
298
298
298
298
298
298
298
298
298
298
300.66203
292.46942
301.02469
296.24448
297.82315
297.5285
297.52978
297.47893
297.56214
297.57479
297.54507
297.43114
297.46312
297.61176
297.78167
297.91405
297.97581
297.99664
298.00016
298.00026
298.00008
298.00001
298
298
298
298
298
298
298
298
298
298
298
298
298
298
298
298
298
298
298
298
298
298
298
298
298
298
298
298
298
298
298
298
298
298
298
298
298
298
298
298
298
298
298
298
298
298
298
298
298
298
298
298
298
298
298
298
298
298
300.14155
293.52646
300.44005
296.5493
297.87059
297.61406
297.62253
297.57589
297.64726
297.65645
297.63158
297.53855
297.5648
297.6846
297.8229
297.93021
297.98039
297.99727
298.00013
298.00021
298.00006
298.00001
298
298
298
298
298
298
298
298
298
298
298
298
298
298
298
298
298
298
298
298
298
298
298
298
298
298
298
298
298
298
298
298
298
298
298
298
298
298
298
298
298
298
298
298
298
298
298
298
298
298
298
298
298
298
298
298
298
298
299.58947
294.66881
299.82255
296.89222
297.91438
297.70929
297.72262
297.68231
297.73917
297.74464
297.72565
297.65486
297.67472
297.76387
297.86785
297.948
297.98547
297.99799
298.0001
298.00016
298.00005
298.00001
298
298
298
298
298
298
298
298
298
298
298
298
298
298
298
298
298
298
298
298
298
298
298
298
298
298
298
298
298
298
298
298
298
298
298
298
298
298
298
298
298
298
298
298
298
298
298
298
298
298
298
298
298
298
298
298
298
298
298.99942
295.90072
299.15314
297.2829
297.95144
297.81843
297.82741
297.79901
297.83778
297.83998
297.82851
297.7821
297.79426
297.84999
297.91644
297.96753
297.99107
297.99882
298.00009
298.00011
298.00003
298
298
298
298
298
298
298
298
298
298
298
298
298
298
298
298
298
298
298
298
298
298
298
298
298
298
298
298
298
298
298
298
298
298
298
298
298
298
298
298
298
298
298
298
298
298
298
298
298
298
298
298
298
298
298
298
298
298
298
298.42949
297.10258
298.52405
297.69734
297.98584
297.94075
297.9337
297.92975
297.9422
297.94256
297.93807
297.9214
297.92569
297.94461
297.96847
297.9878
297.99729
298.00009
298.00015
298.00006
298.00001
298
298
298
298
298
298
298
298
298
298
298
298
298
298
298
298
298
298
298
298
298
298
298
298
298
298
298
298
298
298
298
298
298
298
298
298
298
298
298
298
298
298
298
298
298
298
298
298
298
298
298
298
298
298
298
298
298
298
298
296.89544
297.59924
297.01951
297.38025
297.2582
297.37995
297.35263
297.37909
297.40404
297.46659
297.45199
297.43096
297.48267
297.63692
297.81412
297.93728
297.98378
297.99633
297.99935
297.99998
298.00001
298
298
298
298
298
298
298
298
298
298
298
298
298
298
298
298
298
298
298
298
298
298
298
298
298
298
298
298
298
298
298
298
298
298
298
298
298
298
298
298
298
298
298
298
298
298
298
298
298
298
298
298
298
298
298
298
298
298
298
297.59415
297.61033
297.61739
297.58348
297.61691
297.60543
297.63193
297.64925
297.67683
297.69576
297.73726
297.80103
297.87791
297.9447
297.98212
297.9954
297.99879
297.99973
297.99993
297.99998
298
298
298
298
298
298
298
298
298
298
298
298
298
298
298
298
298
298
298
298
298
298
298
298
298
298
298
298
298
298
298
298
298
298
298
298
298
298
298
298
298
298
298
298
298
298
298
298
298
298
298
298
298
298
298
298
298
298
298
298
297.92555
297.92456
297.92724
297.92958
297.93062
297.93441
297.93755
297.94563
297.95146
297.95809
297.96744
297.9809
297.99255
297.99868
298.0005
298.00043
298.00015
298.00002
298
298
298
298
298
298
298
298
298
298
298
298
298
298
298
298
298
298
298
298
298
298
298
298
298
298
298
298
298
298
298
298
298
298
298
298
298
298
298
298
298
298
298
298
298
298
298
298
298
298
298
298
298
298
298
298
298
298
298
298
298
298
297.9822
297.98218
297.98288
297.98336
297.98462
297.98596
297.98813
297.99022
297.99274
297.99585
297.99929
298.00171
298.00235
298.00175
298.00085
298.00029
298.00008
298.00002
298
298
298
298
298
298
298
298
298
298
298
298
298
298
298
298
298
298
298
298
298
298
298
298
298
298
298
298
298
298
298
298
298
298
298
298
298
298
298
298
298
298
298
298
298
298
298
298
298
298
298
298
298
298
298
298
298
298
298
298
298
298
298.00195
298.00197
298.00195
298.00195
298.0019
298.0019
298.00185
298.00175
298.00161