/*--------------------------------*- C++ -*----------------------------------*\
| =========                 |                                                 |
| \\      /  F ield         | OpenFOAM: The Open Source CFD Toolbox           |
|  \\    /   O peration     | Version:  2406                                  |
|   \\  /    A nd           | Website:  www.openfoam.com                      |
|    \\/     M anipulation  |                                                 |
\*---------------------------------------------------------------------------*/
FoamFile
{
    version     2.0;
    format      ascii;
    arch        "LSB;label=32;scalar=64";
    class       volVectorField;
    location    "0.00012";
    object      U;
}
// * * * * * * * * * * * * * * * * * * * * * * * * * * * * * * * * * * * * * //

dimensions      [0 1 -1 0 0 0 0];

internalField   nonuniform List<vector> 
16000
(
(20.431114 -1.3507503e-20 -0.56165596)
(20.320395 2.7551976e-21 -0.018104189)
(20.406862 -9.5909018e-23 0.049021682)
(20.35696 -2.4287005e-22 -0.37611854)
(20.326936 -1.849228e-21 0.1244693)
(20.305709 -1.2869214e-21 -0.24297161)
(20.280273 -7.7760551e-22 -0.0086104511)
(20.245968 8.0274918e-23 -0.16262655)
(20.222711 4.4951784e-23 -0.059652119)
(20.187887 2.5176595e-22 -0.11499364)
(20.162643 4.0461912e-23 -0.081722714)
(20.12108 2.1829226e-22 -0.11770916)
(20.082097 -3.4750613e-22 -0.10342475)
(20.041903 -9.9807038e-23 -0.088868976)
(20.01766 1.0620639e-21 -0.049021992)
(20.004695 1.0566675e-21 -0.022236634)
(20.000897 1.5491965e-22 -0.005314728)
(20.000022 -2.3109695e-24 -0.00061210667)
(19.999972 -9.602669e-25 0.00023414235)
(19.999986 3.971037e-24 8.6833312e-05)
(19.999998 6.8926947e-25 2.0689025e-05)
(20 -4.3365063e-26 -9.2172581e-07)
(20 -8.0912566e-27 -6.6647868e-07)
(20 4.0594785e-27 -1.8032665e-07)
(20 -2.6479812e-28 3.0687397e-09)
(20 8.665922e-29 3.8127758e-09)
(20 -1.8733481e-29 8.2780646e-10)
(20 -9.4262517e-31 -2.8584537e-11)
(20 -3.7062256e-33 -1.7805409e-11)
(20 -5.4581784e-34 -5.1401372e-12)
(20 0 -1.8597199e-12)
(20 1.6329241e-33 3.4140675e-12)
(20 -1.141089e-32 4.4236491e-13)
(20 1.8879756e-32 1.7609543e-12)
(20 2.3859902e-32 5.4696734e-12)
(20 -5.4260017e-33 -2.0402563e-13)
(20 1.154066e-32 -9.286105e-13)
(20 6.329215e-33 -7.619705e-13)
(20 -3.5398268e-33 -2.8854944e-12)
(20 -2.0372159e-33 5.7552397e-13)
(20 -1.442052e-32 3.2428858e-12)
(20 -7.8141206e-34 2.6197065e-12)
(20 1.4941346e-32 3.6372457e-12)
(20 -3.192041e-34 -3.7888665e-13)
(20 -4.4333421e-34 -4.5168029e-12)
(20 2.9204801e-34 6.4377284e-13)
(20 -3.3964607e-33 6.9734436e-12)
(20 2.3829103e-33 -5.3645854e-12)
(20 -3.332797e-33 -8.8027607e-12)
(20 1.6594623e-33 3.3645516e-12)
(20 -7.766484e-34 6.9921928e-12)
(20 1.53939e-33 7.1668659e-13)
(20 -1.9376204e-33 -3.7744924e-12)
(20 7.5292135e-33 -2.429983e-12)
(20 -9.020939e-34 -2.5829246e-12)
(20 8.5932411e-33 8.6553259e-12)
(20 1.3503446e-33 3.2185768e-12)
(20 -4.4463137e-33 -5.2142777e-12)
(20 -2.2843696e-33 -4.7619762e-12)
(20 -6.0391172e-33 -3.2574394e-12)
(20 2.174614e-33 1.2760928e-12)
(20 -2.4675912e-33 5.2026657e-12)
(20 -4.7660346e-34 7.3898727e-12)
(20 4.4516965e-34 -4.562379e-12)
(20 4.5092872e-34 -1.4190755e-12)
(20 -5.8083227e-34 1.3082291e-12)
(20 -5.8237782e-34 -2.8773916e-12)
(20 -1.1832325e-32 4.7536178e-12)
(20 5.2685878e-33 -7.7136195e-13)
(20 0 -1.6434034e-12)
(20 -5.4164384e-33 4.1109008e-12)
(20 -1.2854346e-32 -6.7858657e-12)
(20 1.1572891e-33 -4.2749211e-12)
(20 -6.487236e-33 3.1461702e-12)
(20 -5.1494715e-33 6.8228766e-12)
(20 7.7211345e-33 -2.1943859e-12)
(20 -3.6228639e-34 -7.9633898e-12)
(20 0 -1.0980648e-12)
(20 4.0665802e-33 2.5939169e-12)
(20 1.4259571e-32 9.3037594e-13)
(20.359806 -2.3875432e-21 -0.45257422)
(20.433904 1.947295e-22 -0.2653165)
(20.38365 -1.5734184e-21 -0.2217057)
(20.424568 1.4048833e-21 -0.49800603)
(20.328187 1.2194493e-21 -0.18454131)
(20.345433 -2.0125794e-21 -0.39230525)
(20.288609 -4.6566144e-22 -0.24613443)
(20.269811 3.8621919e-23 -0.35695028)
(20.230214 -2.3003028e-22 -0.27497368)
(20.198885 -1.78911e-22 -0.31553985)
(20.165883 1.2300418e-21 -0.28981023)
(20.121371 -4.6594026e-22 -0.35171803)
(20.078478 1.6968933e-21 -0.33776562)
(20.036979 1.720032e-21 -0.28901249)
(20.014064 -1.7504484e-21 -0.17188878)
(20.003144 -8.331762e-24 -0.081901002)
(20.000434 -4.5231486e-22 -0.025293327)
(19.999896 1.2464807e-22 -0.005752112)
(19.999959 4.6173706e-23 -0.00040798611)
(19.999989 -4.8405675e-25 0.00012600595)
(20 2.1695948e-24 7.5625632e-05)
(20 3.6143713e-25 1.329485e-05)
(20 0 7.9261279e-07)
(20 -3.9014762e-27 -4.2901923e-07)
(20 -3.6862598e-27 -9.2995531e-08)
(20 2.7834176e-28 -8.5256217e-09)
(20 -2.3519653e-29 1.7453867e-09)
(20 -6.6656113e-30 3.8184228e-10)
(20 -8.3260565e-32 2.7859797e-11)
(20 -5.405883e-32 -7.1621921e-12)
(20 2.3682114e-32 -7.3408934e-13)
(20 -8.0740421e-34 -5.3171922e-13)
(20 5.019103e-34 -7.7440855e-13)
(20 -6.0967512e-34 9.6566882e-13)
(20 8.5249831e-33 -1.2188538e-13)
(20 -3.0223758e-35 3.8682082e-12)
(20 7.3908007e-33 2.7144737e-12)
(20 7.2241313e-33 1.1498257e-12)
(20 7.691836e-34 3.817101e-12)
(20 -6.72524e-34 -1.4328897e-12)
(20 2.6980811e-33 -1.3339897e-12)
(20 -1.522858e-33 4.5995709e-13)
(20 7.6016735e-34 -1.3573669e-12)
(20 1.1029472e-32 -1.3921612e-12)
(20 -3.8140181e-34 -3.5696624e-12)
(20 1.0773068e-32 -1.6919781e-12)
(20 7.5789836e-33 4.9734707e-12)
(20 -1.7478569e-34 5.474758e-13)
(20 -4.0555399e-33 1.7933345e-12)
(20 2.3591922e-33 2.9811823e-14)
(20 -5.0894426e-33 -2.2683426e-12)
(20 -4.2129332e-34 -1.8312913e-12)
(20 -9.8456653e-33 -3.0758455e-12)
(20 1.9103483e-33 6.1787941e-12)
(20 1.0114285e-33 1.6388458e-12)
(20 1.7842918e-33 6.1940681e-12)
(20 2.6849497e-33 1.0367742e-11)
(20 0 -7.3094697e-12)
(20 -8.1812375e-33 -1.6379969e-11)
(20 -1.61008e-33 -6.1081639e-12)
(20 -8.6511193e-34 8.8667823e-12)
(20 1.5748658e-33 4.16277e-12)
(20 -1.4811156e-33 -5.6068826e-12)
(20 -3.94646e-34 1.5357651e-13)
(20 -9.339689e-34 7.8289863e-13)
(20 -1.855338e-34 3.5017486e-12)
(20 1.0761275e-33 8.5516205e-12)
(20 2.0585396e-33 3.8131348e-12)
(20 -8.0505536e-34 -6.4364878e-12)
(20 9.704961e-33 -7.8763581e-12)
(20 -1.4565276e-33 8.9899498e-12)
(20 -1.4307651e-33 7.2092395e-12)
(20 1.7844141e-33 -7.4060232e-12)
(20 1.5208331e-34 -5.8022812e-12)
(20 1.1625362e-33 3.8694042e-12)
(20 2.2695195e-34 -7.2104026e-13)
(20 -6.3689171e-33 -6.993187e-13)
(20 -1.8219819e-33 -2.7577925e-13)
(20 -1.2529183e-33 -5.0356836e-12)
(20 -4.5177754e-33 2.0901036e-12)
(20.316296 8.9174775e-22 -0.43654731)
(20.495291 9.105195e-23 -0.6529167)
(20.376467 1.7006618e-22 -0.41499662)
(20.467345 -1.4321647e-22 -0.68689376)
(20.332043 3.5453008e-23 -0.51603187)
(20.378247 4.9959882e-22 -0.52552165)
(20.294632 -1.4854847e-22 -0.54270086)
(20.286275 3.9460501e-22 -0.54897656)
(20.232421 0 -0.52986097)
(20.206739 2.7635909e-23 -0.51339731)
(20.16695 -4.8468571e-23 -0.51139989)
(20.120245 -1.0838727e-21 -0.58730301)
(20.072406 -4.8233153e-22 -0.58911256)
(20.028691 -4.8240864e-21 -0.51416261)
(20.007265 5.3307027e-21 -0.32394879)
(19.998622 2.3395772e-21 -0.16365668)
(19.998451 -9.9471622e-22 -0.056337002)
(19.999263 2.9643401e-22 -0.014317193)
(19.99985 -5.160055e-23 -0.0017190368)
(19.999986 -5.1730989e-24 0.00011445072)
(20.000005 -1.5699873e-24 0.00014027567)
(20.000002 5.1982696e-27 3.6093128e-05)
(20 4.0044871e-28 4.0129175e-06)
(20 -1.9019515e-27 -5.0740166e-07)
(20 3.1033909e-27 -2.0770893e-07)
(20 -9.8377445e-30 -3.3917264e-08)
(20 -4.4865912e-31 9.0514875e-10)
(20 1.6550091e-31 7.6986761e-10)
(20 2.7612017e-30 1.2738798e-10)
(20 2.5870958e-31 2.1018249e-12)
(20 2.0460645e-32 -1.8431867e-12)
(20 1.4756966e-32 -1.7056017e-12)
(20 5.9574647e-34 2.1946693e-12)
(20 1.6693651e-34 5.9968909e-12)
(20 -7.5200048e-33 2.8904084e-12)
(20 7.9445217e-34 -3.5563171e-12)
(20 -5.836897e-34 -6.4116969e-12)
(20 -1.7862701e-32 -6.8048368e-12)
(20 3.4404564e-34 9.6468773e-13)
(20 -1.177694e-33 1.2572693e-12)
(20 -3.0706988e-33 3.0010339e-12)
(20 1.435222e-33 3.0929128e-12)
(20 2.1133847e-33 -3.0293324e-12)
(20 6.1599442e-34 -1.3204078e-12)
(20 -2.9910834e-34 -3.2838671e-12)
(20 7.2915411e-37 -1.526016e-13)
(20 -1.4054403e-33 1.2001133e-11)
(20 3.4712636e-33 8.6508953e-12)
(20 9.1792259e-34 -1.1375917e-12)
(20 -1.319039e-33 -2.0496988e-12)
(20 8.3479818e-34 -4.3780616e-12)
(20 5.8697293e-35 -4.6521438e-12)
(20 -7.1921011e-33 -2.2307228e-12)
(20 4.6884669e-33 3.5400656e-12)
(20 -1.6443416e-33 -1.9492978e-12)
(20 4.5211212e-33 -6.2941824e-14)
(20 -1.5015432e-33 1.1168684e-11)
(20 -3.7855433e-33 -1.4729484e-15)
(20 -1.7366882e-33 -1.153013e-11)
(20 7.2023757e-35 -7.3223036e-12)
(20 3.5979546e-33 3.2616791e-12)
(20 5.1609557e-33 3.2835697e-12)
(20 5.1341841e-33 -2.7329647e-12)
(20 -9.2224299e-34 -1.0693812e-13)
(20 1.241626e-33 5.122877e-13)
(20 -1.9404338e-33 6.1615067e-12)
(20 -1.7842755e-33 4.6037142e-12)
(20 -7.8963671e-33 -2.7636964e-12)
(20 5.898236e-33 2.2900284e-12)
(20 1.4078682e-34 -4.9023603e-12)
(20 6.5994116e-34 -2.6979823e-12)
(20 -2.4526915e-33 6.1479081e-12)
(20 7.7831327e-35 2.9296257e-12)
(20 1.100598e-34 -3.1461173e-12)
(20 1.3896477e-33 -8.2222082e-13)
(20 -6.5432246e-35 4.2230327e-13)
(20 1.2715163e-32 -2.5970494e-12)
(20 3.820265e-34 -2.3754597e-12)
(20 2.5215391e-33 7.471844e-13)
(20 -1.1589686e-33 3.7332125e-13)
(20.319744 -2.1467363e-21 -0.32166818)
(20.563894 3.7756358e-22 -1.0423623)
(20.343696 -5.1991305e-23 -0.6536061)
(20.507482 -3.0063523e-22 -0.83020584)
(20.326 -1.0629331e-22 -0.86318932)
(20.402053 -1.2822809e-22 -0.64614886)
(20.291541 -1.2965158e-21 -0.8704654)
(20.295606 1.514877e-22 -0.74608685)
(20.229371 8.005966e-23 -0.79966089)
(20.210109 4.9152767e-22 -0.71504453)
(20.163929 -9.8370212e-22 -0.73968279)
(20.115589 1.5341792e-22 -0.81724922)
(20.061256 4.7343559e-22 -0.85315966)
(20.013932 -3.1850636e-23 -0.76426912)
(19.994936 -5.7949759e-23 -0.50573936)
(19.990488 3.8977824e-23 -0.26777843)
(19.994971 1.4380423e-21 -0.098005645)
(19.998136 4.8753785e-23 -0.02671028)
(19.999648 -9.7597021e-24 -0.0038083482)
(19.999976 1.045758e-24 3.356533e-05)
(20.000014 2.0973967e-24 0.00022520556)
(20.000006 1.5275902e-26 6.704629e-05)
(20.000001 2.4648354e-25 8.9726881e-06)
(20 1.1721327e-26 -5.76855e-07)
(20 4.4140069e-27 -3.5555687e-07)
(20 -2.8455523e-27 -6.9132847e-08)
(20 -2.7560493e-29 -2.0145029e-10)
(20 -1.5630295e-29 1.2434018e-09)
(20 5.6174783e-30 2.4561164e-10)
(20 -2.666404e-32 6.2799289e-12)
(20 -4.4497585e-32 -1.3136441e-12)
(20 1.1455697e-32 4.2665531e-13)
(20 -9.827266e-33 3.4908672e-12)
(20 8.8149601e-33 4.1174041e-12)
(20 5.5664918e-33 8.4494348e-13)
(20 1.2593118e-32 -6.8107539e-12)
(20 -4.0116793e-34 -4.3364668e-12)
(20 -1.1660955e-32 -4.6104219e-12)
(20 -1.8602743e-33 -3.5959985e-12)
(20 -1.0413637e-32 4.2331811e-12)
(20 -4.9953028e-33 2.6830524e-12)
(20 -6.7642856e-33 -4.5872891e-13)
(20 8.4724764e-33 2.0088754e-13)
(20 1.3145848e-33 -3.7234707e-12)
(20 7.9802875e-33 -7.0068331e-13)
(20 9.913531e-33 9.4354841e-12)
(20 9.9711262e-34 9.6635436e-12)
(20 3.9109141e-33 4.2487118e-12)
(20 -3.6236353e-33 -4.1438739e-12)
(20 1.4383332e-32 -7.9707625e-12)
(20 3.6239566e-33 -5.1355282e-12)
(20 2.5403679e-33 -6.9562897e-13)
(20 2.0228063e-33 1.2745876e-13)
(20 3.0184944e-34 3.5260111e-12)
(20 1.0702723e-32 1.3136919e-12)
(20 -1.1120909e-33 3.2935029e-12)
(20 -1.020964e-33 9.0915712e-12)
(20 -2.4169638e-33 3.0752503e-12)
(20 -7.8528771e-34 2.7547033e-14)
(20 3.6840063e-33 -5.9719212e-12)
(20 3.0790715e-33 -3.1610759e-12)
(20 5.1516907e-33 2.0298402e-12)
(20 7.5724221e-33 -1.6005949e-12)
(20 -5.5381228e-35 -4.7622097e-12)
(20 2.7923018e-33 1.8252417e-13)
(20 2.4407775e-33 7.2190683e-12)
(20 -5.2232706e-37 -4.0109455e-12)
(20 5.2588056e-33 -6.4099827e-12)
(20 1.5760025e-32 1.0733094e-11)
(20 2.0990555e-33 6.8452168e-12)
(20 -4.8126364e-35 -1.9335181e-12)
(20 -1.7861745e-34 -1.5505364e-12)
(20 -4.3039282e-34 -1.0103326e-13)
(20 3.3616113e-33 -3.9199558e-12)
(20 2.65371e-35 -6.8310218e-12)
(20 2.8552438e-33 4.833588e-12)
(20 -2.9218418e-33 7.2217655e-12)
(20 -1.063246e-32 -3.886178e-12)
(20 5.2654202e-33 -5.5111134e-12)
(20 -9.6370816e-35 1.0733435e-12)
(20.363935 -4.3146072e-21 -0.22398913)
(20.634057 8.3816917e-21 -1.5082746)
(20.305198 0 -0.89506156)
(20.558038 4.7044238e-23 -0.98669235)
(20.314994 4.7547933e-21 -1.2002619)
(20.422992 -1.1941153e-21 -0.7589593)
(20.285704 -5.5892289e-21 -1.2268734)
(20.303039 4.5105804e-22 -0.92720814)
(20.224602 6.2124408e-21 -1.0876877)
(20.210869 7.4104631e-24 -0.91827929)
(20.158435 8.7510992e-22 -0.97418623)
(20.106929 4.7378093e-21 -1.0440018)
(20.044367 7.0951116e-23 -1.1302673)
(19.992287 6.4089831e-21 -1.035283)
(19.97668 -4.279232e-21 -0.7145295)
(19.978305 3.2289194e-21 -0.39485793)
(19.989522 2.7016866e-21 -0.15215706)
(19.996308 -1.6996228e-21 -0.043984086)
(19.999291 -1.8022292e-22 -0.0070757314)
(19.99995 1.9898387e-23 -0.00019837017)
(20.000026 -6.711128e-24 0.00032425919)
(20.000011 1.471199e-24 0.00010899378)
(20.000002 9.1381142e-25 1.6909914e-05)
(20 5.3979489e-26 -4.4641345e-07)
(20 -1.0549043e-27 -5.470746e-07)
(20 2.7851014e-27 -1.2206982e-07)
(20 -4.2486176e-28 -2.8450583e-09)
(20 1.319844e-30 1.8427352e-09)
(20 -8.1159891e-30 4.2617084e-10)
(20 -1.9642335e-30 1.0748709e-11)
(20 1.2958016e-32 -2.3250366e-12)
(20 -1.7486712e-32 1.8016638e-12)
(20 -9.9386586e-33 1.9102376e-12)
(20 1.2772492e-33 -3.7269608e-13)
(20 -3.5303764e-34 6.572483e-13)
(20 -8.26347e-35 -2.4578148e-12)
(20 2.4954892e-34 -3.7513237e-12)
(20 -1.2683598e-32 3.195446e-12)
(20 1.322542e-33 -2.8427027e-12)
(20 8.381325e-34 -2.4035725e-12)
(20 -1.1361955e-34 -1.5825704e-12)
(20 -1.38805e-32 -1.4737773e-12)
(20 -3.7743117e-33 1.9985754e-12)
(20 -1.87833e-33 -3.549903e-12)
(20 -1.0459588e-33 4.7217903e-13)
(20 5.7283749e-33 1.0565885e-11)
(20 1.0238331e-32 9.1304593e-12)
(20 -6.4484865e-33 -3.0320809e-12)
(20 2.365856e-33 -1.159711e-11)
(20 -2.5396084e-33 -4.7472616e-12)
(20 6.6524281e-33 -2.2923251e-12)
(20 -1.5862031e-33 4.1143552e-13)
(20 1.3576898e-33 1.1804006e-12)
(20 5.4609676e-33 7.4640004e-13)
(20 -2.4522669e-33 2.9534695e-13)
(20 3.3604189e-33 -1.75328e-12)
(20 -4.2678211e-33 7.9196306e-12)
(20 2.8877196e-33 2.2279796e-12)
(20 4.2578257e-33 2.8305283e-12)
(20 2.5194877e-33 7.6411115e-12)
(20 3.2173422e-33 -5.3869851e-12)
(20 2.0649775e-33 -9.4710596e-12)
(20 -4.6491954e-33 -1.4350757e-12)
(20 -2.3310302e-33 2.6598938e-13)
(20 3.1798153e-33 2.8232434e-12)
(20 -4.2726168e-33 5.5831842e-12)
(20 -3.5839808e-33 -2.3593578e-12)
(20 1.1783393e-33 -5.7825074e-12)
(20 1.1506288e-33 2.6056459e-12)
(20 3.6570897e-33 4.7737398e-12)
(20 3.5440909e-33 -2.386291e-12)
(20 -6.1140252e-34 1.7773535e-12)
(20 -1.424818e-33 4.7224138e-12)
(20 -3.3697707e-33 -1.4954905e-12)
(20 2.5263039e-34 1.1657094e-12)
(20 2.1974264e-33 -3.6891507e-12)
(20 1.062139e-32 -1.4719809e-12)
(20 1.3347917e-34 3.6556017e-12)
(20 8.3689268e-34 -3.1851415e-12)
(20 1.7800966e-34 1.9882837e-13)
(20.492822 -2.3141822e-22 -0.067234868)
(20.725782 -1.0928704e-20 -2.0547359)
(20.244736 -2.5369998e-22 -1.1756959)
(20.634348 -1.3236056e-22 -1.0803041)
(20.295434 -1.7917057e-23 -1.6284025)
(20.446297 9.0899517e-23 -0.86896691)
(20.281194 1.8341169e-23 -1.5865219)
(20.309149 5.8089168e-21 -1.118641)
(20.219383 -2.8540248e-21 -1.3834622)
(20.208267 2.5304891e-21 -1.1394136)
(20.150475 -1.5279426e-21 -1.2186281)
(20.094152 2.593021e-21 -1.2722276)
(20.021648 3.9908616e-22 -1.4165103)
(19.963076 9.4002062e-21 -1.3259215)
(19.951406 7.0288495e-21 -0.94893339)
(19.960874 -2.0879782e-20 -0.54568557)
(19.981387 -5.1415622e-22 -0.22010863)
(19.993454 3.5116028e-21 -0.067022791)
(19.998686 2.3522945e-23 -0.011867602)
(19.999893 -4.178954e-23 -0.00066118335)
(20.000041 -3.4904134e-26 0.0004306498)
(20.000019 -1.1585146e-26 0.00016320734)
(20.000004 2.717609e-27 2.8904338e-05)
(20 -5.7674438e-29 6.3918672e-08)
(20 6.2077339e-27 -7.7795223e-07)
(20 3.750619e-27 -1.9699529e-07)
(20 1.1818957e-30 -8.2610708e-09)
(20 2.2570722e-29 2.5051659e-09)
(20 1.3002365e-29 6.8506945e-10)
(20 -1.3134553e-30 2.971258e-11)
(20 -3.4394876e-34 -4.2605167e-12)
(20 7.3875744e-35 -2.7714172e-13)
(20 -5.5327528e-34 1.6793838e-12)
(20 -3.5248907e-34 1.2823458e-12)
(20 -7.2813351e-35 3.32177e-12)
(20 1.3008808e-32 -3.456242e-14)
(20 2.522101e-33 -6.4473699e-12)
(20 8.8060167e-33 -3.1222535e-12)
(20 -1.8755907e-32 -1.101148e-12)
(20 1.2144852e-32 -1.65786e-12)
(20 -1.5095467e-33 2.5608836e-12)
(20 -1.1358482e-32 3.7035356e-12)
(20 4.6510759e-33 2.9140423e-13)
(20 -3.0048295e-32 3.2983016e-14)
(20 9.5028113e-33 -1.0706814e-12)
(20 2.3106453e-33 -1.0116555e-12)
(20 -3.9858026e-33 5.2460956e-13)
(20 2.7626829e-33 -3.007971e-12)
(20 -9.526793e-33 -5.9702051e-12)
(20 4.5016599e-33 -3.9902152e-12)
(20 8.3625494e-35 -1.8439149e-12)
(20 3.821398e-33 6.6103726e-12)
(20 -1.8687228e-33 3.7457223e-12)
(20 -1.3790647e-32 -2.8692376e-12)
(20 -8.1303406e-35 4.0344827e-12)
(20 -8.4748347e-33 -1.7070546e-12)
(20 2.0398934e-33 -3.8617721e-12)
(20 -9.3345178e-33 -2.3203475e-12)
(20 -2.2874626e-33 6.0099283e-12)
(20 6.252653e-33 1.2259397e-11)
(20 4.8295823e-34 4.5062988e-12)
(20 -1.4167134e-33 -7.7880596e-12)
(20 8.5447015e-33 -8.0111181e-12)
(20 1.0326189e-33 -5.2323109e-13)
(20 2.2698716e-33 1.8113954e-12)
(20 2.4317415e-33 -8.7810741e-13)
(20 -1.7795502e-33 -3.3032422e-12)
(20 -1.1435767e-33 3.6736917e-12)
(20 7.0125651e-35 1.954299e-12)
(20 1.4182882e-33 2.479449e-13)
(20 1.1169943e-33 -2.7637727e-12)
(20 1.0721751e-33 3.4120135e-12)
(20 -1.1620543e-33 4.7080042e-12)
(20 1.7610509e-33 -7.0929322e-12)
(20 -6.7445889e-36 1.2717654e-13)
(20 -6.8488643e-33 -3.4731025e-13)
(20 3.8279054e-34 2.1017267e-12)
(20 -3.5174415e-34 4.2052349e-12)
(20 -4.1922718e-33 -6.2280472e-12)
(20 3.2573717e-34 2.0971343e-16)
(20.748926 1.1718494e-20 0.15606922)
(20.83644 -1.548615e-20 -2.6815294)
(20.160425 5.4241109e-22 -1.4694558)
(20.736297 -1.2104772e-20 -1.1337966)
(20.254438 -1.6640166e-20 -2.1554513)
(20.482648 2.167802e-21 -0.95800997)
(20.266365 -3.9544327e-23 -1.9754268)
(20.317854 -5.7040072e-23 -1.3005151)
(20.212744 2.9205868e-21 -1.6997916)
(20.199021 3.2582622e-21 -1.3827365)
(20.139865 -7.7103146e-25 -1.4754849)
(20.076564 3.2511525e-22 -1.5081058)
(19.99221 5.5162613e-22 -1.7123805)
(19.925107 -6.9957402e-22 -1.6348353)
(19.91783 1.3445889e-21 -1.2075002)
(19.936975 -7.1160836e-21 -0.72039288)
(19.969783 2.7764328e-22 -0.30284016)
(19.989215 1.341211e-21 -0.096590993)
(19.997725 7.3868872e-23 -0.018513485)
(19.999783 -1.3298141e-22 -0.0014389551)
(20.000058 -7.2836249e-25 0.00053533754)
(20.00003 -3.0351278e-24 0.00023023826)
(20.000006 2.8033898e-27 4.5865613e-05)
(20 -9.3013892e-26 1.1391887e-06)
(20 -1.2962734e-26 -1.0380757e-06)
(20 -1.5118854e-26 -2.9668345e-07)
(20 6.2461745e-28 -1.7714595e-08)
(20 -7.7961296e-30 3.1385673e-09)
(20 2.6641646e-29 1.0262102e-09)
(20 7.22843e-31 6.0433631e-11)
(20 1.1491779e-32 -7.4191174e-12)
(20 -7.078101e-32 6.3798585e-13)
(20 5.3784278e-33 -2.093697e-13)
(20 -7.1109014e-34 -1.8126118e-12)
(20 -1.5856221e-33 -3.2610883e-12)
(20 1.149804e-32 -1.3178737e-13)
(20 9.5527444e-33 5.2995817e-12)
(20 2.7419344e-32 6.5408359e-12)
(20 -5.4127934e-34 3.3179245e-12)
(20 -2.6966369e-33 7.4611042e-14)
(20 -3.8270914e-33 -9.1020168e-13)
(20 0 -3.2801373e-12)
(20 -1.0518821e-32 -1.0293703e-12)
(20 -4.335101e-33 7.52905e-13)
(20 -1.1885756e-33 1.2358329e-12)
(20 -4.7639683e-33 -2.3514619e-12)
(20 -1.1734982e-32 4.1412463e-13)
(20 2.3089997e-33 2.7452022e-12)
(20 -3.4061267e-33 -4.2849794e-13)
(20 -5.1540915e-33 -2.0599132e-12)
(20 3.4918655e-33 -4.9238893e-12)
(20 -2.2058654e-33 4.0602084e-12)
(20 -2.8770469e-34 6.9238286e-12)
(20 -1.8545489e-33 -1.9689121e-12)
(20 1.2913066e-33 -6.3055664e-12)
(20 8.9658649e-35 -1.3092936e-11)
(20 -4.8695832e-33 -3.6271559e-12)
(20 3.6825187e-33 8.0567336e-12)
(20 -5.8228618e-33 1.7888494e-12)
(20 -6.4988615e-33 1.0555107e-12)
(20 -5.2711462e-33 1.2804469e-11)
(20 -5.6011182e-33 8.6280743e-12)
(20 1.9336899e-33 -3.494828e-12)
(20 -4.0902723e-33 -6.4341369e-12)
(20 3.4682475e-33 -4.7247354e-12)
(20 4.1446644e-34 1.6569162e-12)
(20 -1.2820888e-34 -2.5623537e-12)
(20 7.5049279e-34 -1.3391272e-12)
(20 -3.1383028e-34 2.3200173e-12)
(20 1.8651687e-33 1.7838914e-12)
(20 2.1762804e-34 -2.7254862e-13)
(20 -6.7934237e-33 2.1072645e-12)
(20 -6.8239716e-34 -1.5547807e-12)
(20 -1.2732361e-33 -3.3470249e-12)
(20 4.2357381e-33 1.3898719e-12)
(20 9.9433493e-34 -2.3144925e-12)
(20 -9.4900788e-33 1.6008328e-12)
(20 8.0494564e-34 8.4996763e-13)
(20 1.4765273e-33 1.9327564e-12)
(20 -1.8279172e-34 -1.559975e-12)
(21.209819 3.600855e-20 0.47709898)
(20.968771 -3.3492611e-21 -3.4071005)
(20.049903 1.0082449e-21 -1.8116918)
(20.863046 2.6852264e-20 -1.1366568)
(20.193222 -1.2089479e-20 -2.7893374)
(20.529624 -8.0029435e-21 -1.0202865)
(20.239523 9.3303952e-21 -2.4151189)
(20.334812 1.2943876e-20 -1.4460185)
(20.19485 -4.2163002e-21 -2.0533417)
(20.181376 -1.8960519e-21 -1.657457)
(20.124709 -2.4231367e-22 -1.7376644)
(20.055208 -4.74334e-21 -1.7603892)
(19.955466 1.5117346e-22 -2.0175585)
(19.878145 -2.7259573e-21 -1.9622846)
(19.874814 -7.9790651e-21 -1.4883047)
(19.905384 1.4684408e-20 -0.91884635)
(19.953816 4.5563115e-22 -0.40113091)
(19.983162 -2.0845405e-21 -0.13336497)
(19.996271 1.0653235e-21 -0.027329778)
(19.999596 1.0690653e-22 -0.0026198153)
(20.000077 -3.770843e-24 0.00062639331)
(20.000045 5.8483343e-25 0.00031032148)
(20.00001 -1.5258822e-24 6.8573906e-05)
(20.000001 1.6037782e-25 2.9799318e-06)
(20 1.3651602e-28 -1.3106041e-06)
(20 5.9509761e-27 -4.231397e-07)
(20 1.0503254e-27 -3.2559391e-08)
(20 -2.8951027e-29 3.6139867e-09)
(20 2.2372988e-29 1.4665281e-09)
(20 -3.3541725e-30 1.1507261e-10)
(20 4.3006816e-32 -1.0781533e-11)
(20 3.941065e-32 -4.5539876e-12)
(20 2.9024903e-32 -4.9371535e-13)
(20 -1.4351295e-32 1.1183637e-12)
(20 -2.4936143e-33 -6.2743206e-12)
(20 -3.9061043e-33 -4.7949944e-12)
(20 1.3975922e-32 6.1714704e-13)
(20 -8.6456741e-33 5.4424196e-12)
(20 -6.5903729e-33 4.8661611e-12)
(20 -6.6967807e-33 -3.0476288e-12)
(20 -5.8431549e-33 -2.4323453e-12)
(20 -3.313253e-33 1.6990955e-12)
(20 -1.259351e-33 2.3537509e-12)
(20 -9.225337e-33 7.5634751e-13)
(20 8.2198209e-34 -6.2151389e-13)
(20 -4.5743393e-33 -3.0968386e-12)
(20 -9.8533783e-33 -1.4549448e-12)
(20 -7.5609886e-33 4.8129485e-12)
(20 2.8641627e-33 4.7795884e-12)
(20 -3.9466998e-33 -4.7671991e-12)
(20 5.789393e-34 -6.8358599e-12)
(20 1.7519214e-34 -4.6689813e-12)
(20 -5.2608187e-34 6.083672e-13)
(20 -5.4876923e-33 7.9539322e-13)
(20 -6.5120638e-33 -3.8282449e-12)
(20 3.6254814e-33 -3.6086154e-12)
(20 -4.5160003e-33 -3.2850913e-14)
(20 -7.2344238e-33 1.8618659e-12)
(20 7.9164978e-34 9.1247608e-14)
(20 -4.6072527e-34 -4.1273564e-12)
(20 -1.1308491e-34 2.3722764e-12)
(20 -2.6724662e-33 4.1107496e-12)
(20 8.3164754e-34 -3.780301e-12)
(20 8.5591343e-33 6.240211e-12)
(20 2.829582e-33 4.2016128e-12)
(20 1.4151053e-33 -3.6679417e-12)
(20 -6.4071525e-34 1.6680492e-12)
(20 -9.5709421e-34 6.0634406e-12)
(20 4.0452799e-33 -4.1369929e-12)
(20 -1.4385654e-33 3.7454392e-12)
(20 -2.0396841e-34 7.1604638e-12)
(20 4.2413777e-34 -2.8026731e-12)
(20 -8.7657779e-34 -2.0328392e-12)
(20 3.9673045e-33 -3.5027564e-12)
(20 -9.8068601e-34 4.0683184e-13)
(20 -4.31787e-34 1.7345355e-12)
(20 8.6197851e-33 -2.2119467e-12)
(20 -3.4491659e-33 -1.8430936e-12)
(20 5.3692743e-34 2.2065329e-12)
(20 -3.0049724e-33 -4.930631e-13)
(21.907309 -2.4787752e-20 0.87355874)
(21.122915 2.2632952e-20 -4.2402077)
(19.910962 -2.0943881e-21 -2.2101212)
(21.02246 1.3949593e-21 -1.0910353)
(20.10934 1.3713341e-21 -3.5160523)
(20.585956 -7.5707782e-21 -1.0856131)
(20.202155 1.8434952e-20 -2.8914934)
(20.354644 7.8687268e-21 -1.5759326)
(20.159481 -1.0388632e-20 -2.4773895)
(20.162991 -8.3136493e-23 -1.9357029)
(20.102792 1.7805474e-23 -2.0001502)
(20.031935 3.489534e-22 -2.0239492)
(19.90803 -1.3298274e-22 -2.3395716)
(19.821485 -3.1114204e-21 -2.3098653)
(19.820571 -7.2238383e-21 -1.7936306)
(19.86452 -8.6741804e-21 -1.1412781)
(19.932446 1.0369e-20 -0.51590203)
(19.974797 2.8018993e-21 -0.17793949)
(19.994161 -6.319463e-23 -0.038623664)
(19.999294 1.3970666e-22 -0.004296046)
(20.000095 -4.5829511e-24 0.00068935645)
(20.000065 4.3810797e-24 0.0004034216)
(20.000016 -1.6981121e-24 9.7737614e-05)
(20.000001 -2.3739739e-25 5.8029125e-06)
(20 -2.228778e-27 -1.5730307e-06)
(20 6.7293184e-27 -5.7794346e-07)
(20 2.5382185e-28 -5.4095104e-08)
(20 -9.3795465e-29 3.7954211e-09)
(20 5.4062729e-31 1.9924168e-09)
(20 0 1.8746506e-10)
(20 -1.0882742e-31 -7.1859548e-12)
(20 3.8864455e-33 -1.7571213e-12)
(20 1.6431782e-32 -2.5191343e-12)
(20 4.0417419e-33 -2.755847e-12)
(20 8.5878987e-33 3.9865611e-13)
(20 -5.9139017e-34 6.7375747e-13)
(20 1.3372859e-33 3.1226409e-12)
(20 7.4852735e-34 -2.0534189e-12)
(20 -1.4517744e-33 -2.0553258e-12)
(20 -2.8930145e-32 -5.5951062e-12)
(20 -1.2977965e-33 -4.97289e-12)
(20 -1.0450795e-32 2.8093079e-12)
(20 1.0887432e-33 4.2775459e-12)
(20 2.8794562e-33 1.8833135e-12)
(20 -2.425166e-33 1.1067769e-12)
(20 8.2442106e-33 7.7070269e-12)
(20 -2.8295445e-32 3.4781778e-12)
(20 -2.7056485e-33 -2.4430325e-12)
(20 -2.0837544e-32 -4.2764756e-12)
(20 6.7347324e-33 -4.8956566e-12)
(20 3.4783154e-33 1.6953209e-12)
(20 -4.0114638e-33 -2.4214646e-12)
(20 -4.2165614e-33 -4.4403012e-12)
(20 -5.824725e-33 3.7492807e-12)
(20 -1.3565755e-32 1.8500845e-12)
(20 -1.0760857e-32 2.6178121e-12)
(20 -5.5944577e-33 7.17455e-13)
(20 -1.1101542e-32 -1.0594445e-11)
(20 -9.1166157e-33 -8.8949319e-12)
(20 -8.1034591e-34 -5.7710467e-12)
(20 1.5612519e-33 -2.1307673e-12)
(20 -3.9265295e-33 7.2979595e-12)
(20 3.5438925e-33 3.7859624e-13)
(20 -6.3140581e-33 -5.5235742e-12)
(20 2.4949661e-33 1.2082997e-12)
(20 -6.604051e-33 1.4877885e-12)
(20 1.0309649e-33 -2.9298527e-12)
(20 -2.5690582e-33 2.4768812e-12)
(20 -5.787333e-34 -2.0440677e-12)
(20 -7.9967302e-34 2.5416952e-12)
(20 -6.3864509e-33 8.3973174e-12)
(20 -5.1767985e-33 2.3373795e-13)
(20 -6.5394381e-33 4.0758726e-12)
(20 8.1230683e-33 -4.4234761e-13)
(20 5.9771404e-34 1.1480367e-12)
(20 -2.6369955e-33 3.7467703e-12)
(20 3.2754994e-33 -8.3743101e-12)
(20 0 -5.2225166e-12)
(20 8.9663987e-33 3.0860701e-12)
(20 0 1.0488013e-12)
(22.894104 3.3210227e-20 1.3541874)
(21.326187 -2.2724725e-21 -5.2182174)
(19.719341 4.4312737e-21 -2.6699555)
(21.241258 1.6931015e-20 -1.0084767)
(19.981972 -2.0994752e-20 -4.3622075)
(20.659401 -6.4347397e-21 -1.1284002)
(20.14623 7.4094873e-22 -3.4456595)
(20.377957 9.8253708e-21 -1.7002407)
(20.109288 -1.9543678e-23 -2.9414268)
(20.143485 7.92306e-23 -2.2230994)
(20.072745 2.6700032e-21 -2.2772151)
(20.00137 -5.8816797e-21 -2.2974087)
(19.851599 4.759732e-21 -2.6872864)
(19.752641 -2.7759854e-21 -2.6736081)
(19.753203 -7.1352117e-22 -2.1247117)
(19.812552 1.8460065e-20 -1.3880421)
(19.904437 5.2861177e-22 -0.64793396)
(19.963503 -3.1198884e-21 -0.23096373)
(19.991185 -8.8727282e-22 -0.052706756)
(19.998832 -1.8788513e-22 -0.0065640212)
(20.000107 2.7191776e-23 0.00070815106)
(20.000091 -1.2150233e-24 0.00050928712)
(20.000025 4.8153936e-24 0.00013393008)
(20.000002 2.7916069e-25 9.8391407e-06)
(20 -2.2086015e-27 -1.7977435e-06)
(20 2.9712233e-26 -7.6236535e-07)
(20 -3.8742482e-27 -8.36016e-08)
(20 -1.5638974e-29 3.5269447e-09)
(20 -3.4340731e-29 2.6308781e-09)
(20 6.6228325e-30 2.852797e-10)
(20 -6.4758002e-33 -7.6954221e-12)
(20 5.9627007e-34 -2.3237898e-12)
(20 -1.4885318e-32 -1.636758e-12)
(20 -1.3764164e-32 -4.6701882e-12)
(20 2.9754799e-33 -1.7773443e-12)
(20 -2.1108449e-33 8.6745955e-13)
(20 5.3036878e-34 3.4579689e-12)
(20 8.7850328e-33 3.4853653e-12)
(20 8.2562391e-33 -6.8367107e-12)
(20 6.9599223e-33 -8.3262251e-12)
(20 -3.0517315e-33 -5.8396204e-13)
(20 -2.4222931e-33 -3.6966378e-13)
(20 -1.8343016e-33 -1.6597046e-12)
(20 -7.4408147e-33 2.9013613e-12)
(20 4.2648077e-33 2.8648504e-12)
(20 -2.7390737e-35 7.7950181e-12)
(20 -1.4347259e-32 7.7384106e-12)
(20 -2.735707e-33 2.4193135e-12)
(20 -1.2325252e-32 -3.4319913e-12)
(20 0 -7.3225048e-12)
(20 1.2212512e-32 -1.1137752e-12)
(20 4.1985044e-33 2.8567205e-12)
(20 -1.7852347e-33 2.8155486e-12)
(20 -2.5622326e-33 -1.6526229e-12)
(20 -3.0066307e-34 4.7847197e-12)
(20 -3.9707576e-33 1.0904532e-11)
(20 -7.7509969e-34 4.228919e-12)
(20 3.1898685e-34 -8.0007371e-12)
(20 -3.2282641e-34 -1.698737e-11)
(20 1.5474662e-33 -9.2603707e-12)
(20 1.4307172e-33 3.3375034e-12)
(20 7.155272e-34 7.2382989e-12)
(20 -1.0925532e-32 -5.9208715e-12)
(20 1.7679894e-33 -1.0017638e-11)
(20 -1.6166275e-32 1.1609551e-11)
(20 -1.8106955e-33 1.4403949e-11)
(20 1.9133888e-33 -4.4306899e-12)
(20 3.2044535e-33 -9.493681e-12)
(20 3.5592383e-33 -9.8446041e-12)
(20 1.5065642e-34 -5.8898815e-12)
(20 4.50234e-33 5.1799053e-12)
(20 2.7707223e-33 9.3830604e-12)
(20 -3.5794666e-34 8.6952416e-13)
(20 6.8907084e-33 -9.8993934e-13)
(20 1.9565354e-33 1.6197718e-12)
(20 -2.1128557e-33 3.9093043e-14)
(20 3.9971487e-33 1.6383783e-12)
(20 -1.077217e-32 -5.3244548e-12)
(20 -8.8270909e-33 5.8477056e-13)
(20 2.6298024e-33 5.0363956e-13)
(24.361496 4.7269552e-20 1.9980038)
(21.626398 -2.549826e-21 -6.3870421)
(19.442993 6.3320012e-22 -3.231266)
(21.547072 2.1639601e-21 -0.85235906)
(19.785491 2.4521368e-21 -5.4263924)
(20.761516 6.0386229e-22 -1.1098913)
(20.066341 -8.8144182e-21 -4.0984781)
(20.408841 1.2986116e-21 -1.8225871)
(20.04597 1.0786844e-21 -3.4475113)
(20.121616 -3.7865889e-21 -2.5176419)
(20.032524 -6.7065166e-22 -2.5877849)
(19.963358 -1.5046334e-20 -2.5719871)
(19.785916 -6.1698884e-21 -3.048472)
(19.6686 2.2172498e-22 -3.0642773)
(19.670031 -1.6940581e-20 -2.4849403)
(19.747244 -8.9602804e-22 -1.6606652)
(19.868288 7.5475821e-21 -0.79812415)
(19.948514 3.3894644e-21 -0.2931422)
(19.98708 9.4130786e-23 -0.069913159)
(19.998151 -2.4497053e-22 -0.0095273889)
(20.00011 8.8731702e-26 0.00066527326)
(20.000123 -5.0632152e-24 0.00062758751)
(20.000036 -2.4353515e-25 0.00017759719)
(20.000003 3.8428584e-26 1.5335323e-05)
(20 9.5488023e-27 -1.9529722e-06)
(20 -1.2554328e-26 -9.7739612e-07)
(20 2.1551474e-28 -1.2232706e-07)
(20 1.246563e-28 2.6346816e-09)
(20 -6.5417642e-30 3.3681095e-09)
(20 -6.5819239e-30 4.1508362e-10)
(20 -4.6188154e-31 -5.722586e-12)
(20 -9.4281679e-32 -7.1541722e-12)