/*--------------------------------*- C++ -*----------------------------------*\
| =========                 |                                                 |
| \\      /  F ield         | OpenFOAM: The Open Source CFD Toolbox           |
|  \\    /   O peration     | Version:  2406                                  |
|   \\  /    A nd           | Website:  www.openfoam.com                      |
|    \\/     M anipulation  |                                                 |
\*---------------------------------------------------------------------------*/
FoamFile
{
    version     2.0;
    format      ascii;
    arch        "LSB;label=32;scalar=64";
    class       volScalarField;
    location    "0.0001";
    object      alphat;
}
// * * * * * * * * * * * * * * * * * * * * * * * * * * * * * * * * * * * * * //

dimensions      [1 -1 -1 0 0 0 0];

internalField   nonuniform List<scalar> 
16000
(
1.1897839e-05
3.5655842e-05
7.6040803e-05
0.00016798469
0.0001268978
0.00014429222
0.00015873014
0.00018721246
0.00020063809
0.00015947054
0.00016971931
0.00018447693
0.00022666137
0.00039829656
0.00086569863
0.0011663082
0.0011663077
0.0011663082
0.0011663087
0.0011663087
0.0011663087
0.0011663087
0.0011663087
0.0011663088
0.0011663089
0.001166309
0.0011663092
0.0011663094
0.0011663095
0.0011663097
0.0011663098
0.0011663099
0.00116631
0.00116631
0.0011663101
0.0011663101
0.0011663102
0.0011663102
0.0011663102
0.0011663102
0.0011663102
0.0011663102
0.0011663102
0.0011663103
0.0011663103
0.0011663103
0.0011663103
0.0011663103
0.0011663103
0.0011663103
0.0011663103
0.0011663103
0.0011663103
0.0011663103
0.0011663103
0.0011663103
0.0011663103
0.0011663103
0.0011663103
0.0011663103
0.0011663103
0.0011663103
0.0011663103
0.0011663103
0.0011663103
0.0011663103
0.0011663103
0.0011663103
0.0011663103
0.0011663103
0.0011663103
0.0011663103
0.0011663103
0.0011663103
0.0011663103
0.0011663103
0.0011663103
0.0011663103
0.0011663103
0.0011663103
1.1551272e-05
7.1154027e-05
0.00022905316
0.00021538755
0.00013516449
0.000166337
0.00013720776
0.00019055837
0.00015944783
0.00013680889
0.00014444125
0.00010385441
8.9975916e-05
0.00013251713
0.000255264
0.00088418239
0.0011663094
0.0011663078
0.0011663084
0.0011663087
0.0011663087
0.0011663087
0.0011663087
0.0011663088
0.0011663088
0.001166309
0.0011663091
0.0011663093
0.0011663095
0.0011663096
0.0011663098
0.0011663099
0.00116631
0.00116631
0.0011663101
0.0011663101
0.0011663102
0.0011663102
0.0011663102
0.0011663102
0.0011663102
0.0011663102
0.0011663102
0.0011663103
0.0011663103
0.0011663103
0.0011663103
0.0011663103
0.0011663103
0.0011663103
0.0011663103
0.0011663103
0.0011663103
0.0011663103
0.0011663103
0.0011663103
0.0011663103
0.0011663103
0.0011663103
0.0011663103
0.0011663103
0.0011663103
0.0011663103
0.0011663103
0.0011663103
0.0011663103
0.0011663103
0.0011663103
0.0011663103
0.0011663103
0.0011663103
0.0011663103
0.0011663103
0.0011663103
0.0011663103
0.0011663103
0.0011663103
0.0011663103
0.0011663103
0.0011663103
1.0583454e-05
0.00014607559
6.1155192e-05
9.0659086e-05
0.00017846506
0.00024723931
0.000121759
0.00018555302
0.00012094985
0.00011808363
0.00013053474
6.8802672e-05
5.4017765e-05
7.3400641e-05
0.00013146759
0.00038325627
0.0011663133
0.0011663074
0.001166308
0.0011663086
0.0011663087
0.0011663087
0.0011663087
0.0011663088
0.0011663088
0.0011663089
0.0011663091
0.0011663093
0.0011663095
0.0011663096
0.0011663097
0.0011663099
0.0011663099
0.00116631
0.0011663101
0.0011663101
0.0011663101
0.0011663102
0.0011663102
0.0011663102
0.0011663102
0.0011663102
0.0011663102
0.0011663103
0.0011663103
0.0011663103
0.0011663103
0.0011663103
0.0011663103
0.0011663103
0.0011663103
0.0011663103
0.0011663103
0.0011663103
0.0011663103
0.0011663103
0.0011663103
0.0011663103
0.0011663103
0.0011663103
0.0011663103
0.0011663103
0.0011663103
0.0011663103
0.0011663103
0.0011663103
0.0011663103
0.0011663103
0.0011663103
0.0011663103
0.0011663103
0.0011663103
0.0011663103
0.0011663103
0.0011663103
0.0011663103
0.0011663103
0.0011663103
0.0011663103
0.0011663103
6.9852412e-06
0.00010681983
3.5712505e-05
6.0341852e-05
0.00016437996
0.00019069869
0.00012242577
0.00015227305
9.7938952e-05
9.9112548e-05
0.00012535728
5.2576168e-05
3.8042315e-05
4.8160406e-05
8.1605235e-05
0.0002151763
0.0011663199
0.001166307
0.0011663076
0.0011663084
0.0011663087
0.0011663087
0.0011663087
0.0011663087
0.0011663088
0.0011663089
0.0011663091
0.0011663092
0.0011663094
0.0011663096
0.0011663097
0.0011663098
0.0011663099
0.00116631
0.0011663101
0.0011663101
0.0011663101
0.0011663102
0.0011663102
0.0011663102
0.0011663102
0.0011663102
0.0011663102
0.0011663102
0.0011663103
0.0011663103
0.0011663103
0.0011663103
0.0011663103
0.0011663103
0.0011663103
0.0011663103
0.0011663103
0.0011663103
0.0011663103
0.0011663103
0.0011663103
0.0011663103
0.0011663103
0.0011663103
0.0011663103
0.0011663103
0.0011663103
0.0011663103
0.0011663103
0.0011663103
0.0011663103
0.0011663103
0.0011663103
0.0011663103
0.0011663103
0.0011663103
0.0011663103
0.0011663103
0.0011663103
0.0011663103
0.0011663103
0.0011663103
0.0011663103
0.0011663104
5.3376956e-06
4.5806472e-05
2.4446659e-05
4.0234079e-05
0.00013770415
0.00013883754
0.00010161284
0.00012993493
8.4231616e-05
8.3053415e-05
0.00011451016
4.3412022e-05
2.9298821e-05
3.4820159e-05
5.6027815e-05
0.00014018069
0.00074257907
0.0011663068
0.0011663071
0.0011663082
0.0011663087
0.0011663087
0.0011663087
0.0011663087
0.0011663088
0.0011663089
0.001166309
0.0011663092
0.0011663094
0.0011663096
0.0011663097
0.0011663098
0.0011663099
0.00116631
0.00116631
0.0011663101
0.0011663101
0.0011663102
0.0011663102
0.0011663102
0.0011663102
0.0011663102
0.0011663102
0.0011663102
0.0011663103
0.0011663103
0.0011663103
0.0011663103
0.0011663103
0.0011663103
0.0011663103
0.0011663103
0.0011663103
0.0011663103
0.0011663103
0.0011663103
0.0011663103
0.0011663103
0.0011663103
0.0011663103
0.0011663103
0.0011663103
0.0011663103
0.0011663103
0.0011663103
0.0011663103
0.0011663103
0.0011663103
0.0011663103
0.0011663103
0.0011663103
0.0011663103
0.0011663103
0.0011663103
0.0011663103
0.0011663103
0.0011663103
0.0011663103
0.0011663103
0.0011663104
4.3261226e-06
2.4589055e-05
1.7378105e-05
3.1417467e-05
0.00010042034
9.259059e-05
0.00010130241
9.433752e-05
8.1596125e-05
6.8397267e-05
9.2848723e-05
3.7976609e-05
2.3809366e-05
2.673186e-05
4.0968063e-05
9.7798727e-05
0.00046182681
0.0011663071
0.0011663065
0.001166308
0.0011663086
0.0011663087
0.0011663087
0.0011663087
0.0011663088
0.0011663089
0.001166309
0.0011663092
0.0011663094
0.0011663095
0.0011663097
0.0011663098
0.0011663099
0.00116631
0.00116631
0.0011663101
0.0011663101
0.0011663102
0.0011663102
0.0011663102
0.0011663102
0.0011663102
0.0011663102
0.0011663102
0.0011663103
0.0011663103
0.0011663103
0.0011663103
0.0011663103
0.0011663103
0.0011663103
0.0011663103
0.0011663103
0.0011663103
0.0011663103
0.0011663103
0.0011663103
0.0011663103
0.0011663103
0.0011663103
0.0011663103
0.0011663103
0.0011663103
0.0011663103
0.0011663103
0.0011663103
0.0011663103
0.0011663103
0.0011663103
0.0011663103
0.0011663103
0.0011663103
0.0011663103
0.0011663103
0.0011663103
0.0011663103
0.0011663103
0.0011663103
0.0011663103
0.0011663104
4.0624572e-06
1.5708306e-05
1.2773683e-05
2.5485893e-05
7.4456299e-05
7.0995547e-05
9.4560144e-05
6.6586048e-05
8.6296062e-05
5.6192903e-05
6.9393468e-05
3.4382068e-05
2.005233e-05
2.1378336e-05
3.1316797e-05
7.1618017e-05
0.00030599947
0.001166308
0.0011663059
0.0011663076
0.0011663086
0.0011663087
0.0011663087
0.0011663087
0.0011663088
0.0011663088
0.001166309
0.0011663091
0.0011663093
0.0011663095
0.0011663096
0.0011663098
0.0011663099
0.00116631
0.00116631
0.0011663101
0.0011663101
0.0011663102
0.0011663102
0.0011663102
0.0011663102
0.0011663102
0.0011663102
0.0011663102
0.0011663103
0.0011663103
0.0011663103
0.0011663103
0.0011663103
0.0011663103
0.0011663103
0.0011663103
0.0011663103
0.0011663103
0.0011663103
0.0011663103
0.0011663103
0.0011663103
0.0011663103
0.0011663103
0.0011663103
0.0011663103
0.0011663103
0.0011663103
0.0011663103
0.0011663103
0.0011663103
0.0011663103
0.0011663103
0.0011663103
0.0011663103
0.0011663103
0.0011663103
0.0011663103
0.0011663103
0.0011663103
0.0011663103
0.0011663103
0.0011663103
0.0011663104
4.1305666e-06
1.0754145e-05
1.0124467e-05
2.1074419e-05
5.8982825e-05
6.0538925e-05
6.2671569e-05
4.3175881e-05
9.4122177e-05
4.4653957e-05
5.1292778e-05
3.1703032e-05
1.7307185e-05
1.7624752e-05
2.4749912e-05
5.4392377e-05
0.00021289679
0.00116631
0.0011663052
0.0011663072
0.0011663085
0.0011663087
0.0011663087
0.0011663087
0.0011663088
0.0011663088
0.001166309
0.0011663091
0.0011663093
0.0011663095
0.0011663096
0.0011663098
0.0011663099
0.0011663099
0.00116631
0.0011663101
0.0011663101
0.0011663101
0.0011663102
0.0011663102
0.0011663102
0.0011663102
0.0011663102
0.0011663102
0.0011663103
0.0011663103
0.0011663103
0.0011663103
0.0011663103
0.0011663103
0.0011663103
0.0011663103
0.0011663103
0.0011663103
0.0011663103
0.0011663103
0.0011663103
0.0011663103
0.0011663103
0.0011663103
0.0011663103
0.0011663103
0.0011663103
0.0011663103
0.0011663103
0.0011663103
0.0011663103
0.0011663103
0.0011663103
0.0011663103
0.0011663103
0.0011663103
0.0011663103
0.0011663103
0.0011663103
0.0011663103
0.0011663103
0.0011663103
0.0011663103
0.0011663105
4.587796e-06
7.7915782e-06
8.9914409e-06
1.7773098e-05
4.5447719e-05
5.1269373e-05
3.9050432e-05
2.9936409e-05
9.5072895e-05
3.6230424e-05
3.9787158e-05
2.9480087e-05
1.5307792e-05
1.484307e-05
2.0074719e-05
4.2512966e-05
0.00015392947
0.0010479865
0.0011663045
0.0011663067
0.0011663084
0.0011663087
0.0011663087
0.0011663087
0.0011663088
0.0011663088
0.0011663089
0.0011663091
0.0011663093
0.0011663094
0.0011663096
0.0011663097
0.0011663098
0.0011663099
0.00116631
0.0011663101
0.0011663101
0.0011663101
0.0011663102
0.0011663102
0.0011663102
0.0011663102
0.0011663102
0.0011663102
0.0011663103
0.0011663103
0.0011663103
0.0011663103
0.0011663103
0.0011663103
0.0011663103
0.0011663103
0.0011663103
0.0011663103
0.0011663103
0.0011663103
0.0011663103
0.0011663103
0.0011663103
0.0011663103
0.0011663103
0.0011663103
0.0011663103
0.0011663103
0.0011663103
0.0011663103
0.0011663103
0.0011663103
0.0011663103
0.0011663103
0.0011663103
0.0011663103
0.0011663103
0.0011663103
0.0011663103
0.0011663103
0.0011663103
0.0011663103
0.0011663103
0.0011663105
5.8729991e-06
5.8140152e-06
7.9311669e-06
1.5160531e-05
3.5831708e-05
4.1856037e-05
2.5768183e-05
2.2623781e-05
8.5538116e-05
3.1518006e-05
3.07156e-05
2.8124758e-05
1.3684971e-05
1.269312e-05
1.6608066e-05
3.3998384e-05
0.00011479226
0.00072870319
0.0011663037
0.0011663062
0.0011663083
0.0011663087
0.0011663087
0.0011663087
0.0011663087
0.0011663088
0.0011663089
0.0011663091
0.0011663093
0.0011663094
0.0011663096
0.0011663097
0.0011663098
0.0011663099
0.00116631
0.0011663101
0.0011663101
0.0011663101
0.0011663102
0.0011663102
0.0011663102
0.0011663102
0.0011663102
0.0011663102
0.0011663102
0.0011663103
0.0011663103
0.0011663103
0.0011663103
0.0011663103
0.0011663103
0.0011663103
0.0011663103
0.0011663103
0.0011663103
0.0011663103
0.0011663103
0.0011663103
0.0011663103
0.0011663103
0.0011663103
0.0011663103
0.0011663103
0.0011663103
0.0011663103
0.0011663103
0.0011663103
0.0011663103
0.0011663103
0.0011663103
0.0011663103
0.0011663103
0.0011663103
0.0011663103
0.0011663103
0.0011663103
0.0011663103
0.0011663103
0.0011663103
0.0011663106
5.9289499e-06
4.3942835e-06
5.7619026e-06
1.6460703e-05
2.8111692e-05
3.468103e-05
1.8789281e-05
1.7573895e-05
7.0601528e-05
2.8968833e-05
2.4342089e-05
2.7528493e-05
1.2367948e-05
1.0992286e-05
1.3956088e-05
2.7689101e-05
8.7771445e-05
0.00052491855
0.001166303
0.0011663056
0.0011663082
0.0011663087
0.0011663087
0.0011663087
0.0011663087
0.0011663088
0.0011663089
0.0011663091
0.0011663092
0.0011663094
0.0011663096
0.0011663097
0.0011663098
0.0011663099
0.00116631
0.0011663101
0.0011663101
0.0011663101
0.0011663102
0.0011663102
0.0011663102
0.0011663102
0.0011663102
0.0011663102
0.0011663102
0.0011663103
0.0011663103
0.0011663103
0.0011663103
0.0011663103
0.0011663103
0.0011663103
0.0011663103
0.0011663103
0.0011663103
0.0011663103
0.0011663103
0.0011663103
0.0011663103
0.0011663103
0.0011663103
0.0011663103
0.0011663103
0.0011663103
0.0011663103
0.0011663103
0.0011663103
0.0011663103
0.0011663103
0.0011663103
0.0011663103
0.0011663103
0.0011663103
0.0011663103
0.0011663103
0.0011663103
0.0011663103
0.0011663103
0.0011663103
0.0011663106
4.3619997e-06
3.4418243e-06
3.7788603e-06
1.9519024e-05
2.2615401e-05
3.359899e-05
1.4328094e-05
1.3994516e-05
5.882023e-05
2.9093201e-05
1.9757931e-05
2.7819766e-05
1.1280549e-05
9.6024142e-06
1.1873951e-05
2.2880786e-05
6.8480409e-05
0.00038889555
0.0011663023
0.0011663049
0.001166308
0.0011663087
0.0011663087
0.0011663087
0.0011663087
0.0011663088
0.0011663089
0.001166309
0.0011663092
0.0011663094
0.0011663095
0.0011663097
0.0011663098
0.0011663099
0.00116631
0.00116631
0.0011663101
0.0011663101
0.0011663102
0.0011663102
0.0011663102
0.0011663102
0.0011663102
0.0011663102
0.0011663102
0.0011663103
0.0011663103
0.0011663103
0.0011663103
0.0011663103
0.0011663103
0.0011663103
0.0011663103
0.0011663103
0.0011663103
0.0011663103
0.0011663103
0.0011663103
0.0011663103
0.0011663103
0.0011663103
0.0011663103
0.0011663103
0.0011663103
0.0011663103
0.0011663103
0.0011663103
0.0011663103
0.0011663103
0.0011663103
0.0011663103
0.0011663103
0.0011663103
0.0011663103
0.0011663103
0.0011663103
0.0011663103
0.0011663103
0.0011663103
0.0011663106
3.5265985e-06
2.7459906e-06
2.9772103e-06
2.3578736e-05
1.8910032e-05
3.5394005e-05
1.1347053e-05
1.1329499e-05
5.0207972e-05
2.9916237e-05
1.6495827e-05
2.8603234e-05
1.0398225e-05
8.4540038e-06
1.0204733e-05
1.9125546e-05
5.4307631e-05
0.00029471462
0.0011663017
0.0011663041
0.0011663078
0.0011663087
0.0011663087
0.0011663087
0.0011663087
0.0011663088
0.0011663089
0.001166309
0.0011663092
0.0011663094
0.0011663095
0.0011663097
0.0011663098
0.0011663099
0.00116631
0.00116631
0.0011663101
0.0011663101
0.0011663102
0.0011663102
0.0011663102
0.0011663102
0.0011663102
0.0011663102
0.0011663102
0.0011663103
0.0011663103
0.0011663103
0.0011663103
0.0011663103
0.0011663103
0.0011663103
0.0011663103
0.0011663103
0.0011663103
0.0011663103
0.0011663103
0.0011663103
0.0011663103
0.0011663103
0.0011663103
0.0011663103
0.0011663103
0.0011663103
0.0011663103
0.0011663103
0.0011663103
0.0011663103
0.0011663103
0.0011663103
0.0011663103
0.0011663103
0.0011663103
0.0011663103
0.0011663103
0.0011663103
0.0011663103
0.0011663103
0.0011663103
0.0011663107
2.6558689e-06
2.2364207e-06
2.3698141e-06
2.4018328e-05
1.5783944e-05
3.318033e-05
9.2240152e-06
1.0036366e-05
4.2630255e-05
3.0415793e-05
1.4106684e-05
2.9565895e-05
9.676321e-06
7.496521e-06
8.8420179e-06
1.6134663e-05
4.3638328e-05
0.00022745853
0.0011663013
0.0011663032
0.0011663075
0.0011663086
0.0011663087
0.0011663087
0.0011663087
0.0011663088
0.0011663089
0.001166309
0.0011663092
0.0011663094
0.0011663095
0.0011663097
0.0011663098
0.0011663099
0.00116631
0.00116631
0.0011663101
0.0011663101
0.0011663102
0.0011663102
0.0011663102
0.0011663102
0.0011663102
0.0011663102
0.0011663102
0.0011663103
0.0011663103
0.0011663103
0.0011663103
0.0011663103
0.0011663103
0.0011663103
0.0011663103
0.0011663103
0.0011663103
0.0011663103
0.0011663103
0.0011663103
0.0011663103
0.0011663103
0.0011663103
0.0011663103
0.0011663103
0.0011663103
0.0011663103
0.0011663103
0.0011663103
0.0011663103
0.0011663103
0.0011663103
0.0011663103
0.0011663103
0.0011663103
0.0011663103
0.0011663103
0.0011663103
0.0011663103
0.0011663103
0.0011663103
0.0011663107
1.9798201e-06
1.7687663e-06
1.8956896e-06
2.4401802e-05
1.2956423e-05
3.0866914e-05
7.6170827e-06
9.2290794e-06
3.5906535e-05
3.1422982e-05
1.2311397e-05
3.0141052e-05
9.0709729e-06
6.6901606e-06
7.7142666e-06
1.371728e-05
3.5450931e-05
0.00017823142
0.0011663011
0.0011663023
0.0011663072
0.0011663086
0.0011663087
0.0011663087
0.0011663087
0.0011663088
0.0011663089
0.001166309
0.0011663092
0.0011663093
0.0011663095
0.0011663097
0.0011663098
0.0011663099
0.00116631
0.00116631
0.0011663101
0.0011663101
0.0011663102
0.0011663102
0.0011663102
0.0011663102
0.0011663102
0.0011663102
0.0011663102
0.0011663103
0.0011663103
0.0011663103
0.0011663103
0.0011663103
0.0011663103
0.0011663103
0.0011663103
0.0011663103
0.0011663103
0.0011663103
0.0011663103
0.0011663103
0.0011663103
0.0011663103
0.0011663103
0.0011663103
0.0011663103
0.0011663103
0.0011663103
0.0011663103
0.0011663103
0.0011663103
0.0011663103
0.0011663103
0.0011663103
0.0011663103
0.0011663103
0.0011663103
0.0011663103
0.0011663103
0.0011663103
0.0011663103
0.0011663103
0.0011663108
1.5528863e-06
1.4006179e-06
1.5114621e-06
2.6816415e-05
1.0568326e-05
2.9179385e-05
6.3448843e-06
8.4805928e-06
3.0519032e-05
3.3252696e-05
1.0918486e-05
2.9455001e-05
8.5295008e-06
5.9976727e-06
6.7677649e-06
1.173984e-05
2.908159e-05
0.00014155663
0.0011663012
0.0011663013
0.0011663068
0.0011663086
0.0011663087
0.0011663087
0.0011663087
0.0011663088
0.0011663089
0.001166309
0.0011663092
0.0011663093
0.0011663095
0.0011663097
0.0011663098
0.0011663099
0.00116631
0.00116631
0.0011663101
0.0011663101
0.0011663102
0.0011663102
0.0011663102
0.0011663102
0.0011663102
0.0011663102
0.0011663102
0.0011663103
0.0011663103
0.0011663103
0.0011663103
0.0011663103
0.0011663103
0.0011663103
0.0011663103
0.0011663103
0.0011663103
0.0011663103
0.0011663103
0.0011663103
0.0011663103
0.0011663103
0.0011663103
0.0011663103
0.0011663103
0.0011663103
0.0011663103
0.0011663103
0.0011663103
0.0011663103
0.0011663103
0.0011663103
0.0011663103
0.0011663103
0.0011663103
0.0011663103
0.0011663103
0.0011663103
0.0011663103
0.0011663103
0.0011663103
0.0011663108
1.2084802e-06
1.0785952e-06
1.2092331e-06
2.4343074e-05
8.5631283e-06
2.0013834e-05
5.3869466e-06
7.5785318e-06
2.6225052e-05
3.440415e-05
9.7530501e-06
2.7162566e-05
7.9975096e-06
5.3813966e-06
5.958262e-06
1.0101937e-05
2.4084363e-05
0.00011396817
0.0011663017
0.0011663001
0.0011663064
0.0011663085
0.0011663088
0.0011663087
0.0011663087
0.0011663088
0.0011663088
0.001166309
0.0011663092
0.0011663093
0.0011663095
0.0011663097
0.0011663098
0.0011663099
0.00116631
0.00116631
0.0011663101
0.0011663101
0.0011663102
0.0011663102
0.0011663102
0.0011663102
0.0011663102
0.0011663102
0.0011663102
0.0011663103
0.0011663103
0.0011663103
0.0011663103
0.0011663103
0.0011663103
0.0011663103
0.0011663103
0.0011663103
0.0011663103
0.0011663103
0.0011663103
0.0011663103
0.0011663103
0.0011663103
0.0011663103
0.0011663103
0.0011663103
0.0011663103
0.0011663103
0.0011663103
0.0011663103
0.0011663103
0.0011663103
0.0011663103
0.0011663103
0.0011663103
0.0011663103
0.0011663103
0.0011663103
0.0011663103
0.0011663103
0.0011663103
0.0011663103
0.0011663109
9.6688977e-07
8.21372e-07
9.5832465e-07
2.2103875e-05
6.876283e-06
1.673027e-05
4.5903812e-06
7.033788e-06
2.2954119e-05
3.1472705e-05
8.6721846e-06
2.4074098e-05
7.466265e-06
4.8215404e-06
5.2554976e-06
8.7336738e-06
2.0189538e-05
9.3185474e-05
0.0011663025
0.0011662989
0.0011663059
0.0011663084
0.0011663088
0.0011663087
0.0011663087
0.0011663088
0.0011663088
0.001166309
0.0011663092
0.0011663093
0.0011663095
0.0011663096
0.0011663098
0.0011663099
0.00116631
0.00116631
0.0011663101
0.0011663101
0.0011663102
0.0011663102
0.0011663102
0.0011663102
0.0011663102
0.0011663102
0.0011663102
0.0011663103
0.0011663103
0.0011663103
0.0011663103
0.0011663103
0.0011663103
0.0011663103
0.0011663103
0.0011663103
0.0011663103
0.0011663103
0.0011663103
0.0011663103
0.0011663103
0.0011663103
0.0011663103
0.0011663103
0.0011663103
0.0011663103
0.0011663103
0.0011663103
0.0011663103
0.0011663103
0.0011663103
0.0011663103
0.0011663103
0.0011663103
0.0011663103
0.0011663103
0.0011663103
0.0011663103
0.0011663103
0.0011663103
0.0011663103
0.0011663109
6.3534964e-07
6.1246812e-07
7.4804303e-07
1.4456844e-05
5.0956868e-06
1.1201034e-05
3.9674834e-06
6.0319206e-06
2.0381481e-05
2.5105769e-05
7.7065613e-06
2.1014229e-05
6.9833898e-06
4.3288682e-06
4.6558404e-06
7.6044663e-06
1.7158458e-05
7.7675519e-05
0.00093814673
0.0011662976
0.0011663054
0.0011663084
0.0011663088
0.0011663087
0.0011663087
0.0011663088
0.0011663088
0.001166309
0.0011663091
0.0011663093
0.0011663095
0.0011663096
0.0011663098
0.0011663099
0.00116631
0.00116631
0.0011663101
0.0011663101
0.0011663102
0.0011663102
0.0011663102
0.0011663102
0.0011663102
0.0011663102
0.0011663102
0.0011663103
0.0011663103
0.0011663103
0.0011663103
0.0011663103
0.0011663103
0.0011663103
0.0011663103
0.0011663103
0.0011663103
0.0011663103
0.0011663103
0.0011663103
0.0011663103
0.0011663103
0.0011663103
0.0011663103
0.0011663103
0.0011663103
0.0011663103
0.0011663103
0.0011663103
0.0011663103
0.0011663103
0.0011663103
0.0011663103
0.0011663103
0.0011663103
0.0011663103
0.0011663103
0.0011663103
0.0011663103
0.0011663103
0.0011663103
0.001166311
4.4297938e-07
4.7662101e-07
5.5004239e-07
5.6522206e-06
3.7577908e-06
8.3127604e-06
3.4634726e-06
6.0353493e-06
1.6686468e-05
1.9083599e-05
6.9353513e-06
1.8482502e-05
7.0098592e-06
3.9234112e-06
4.1720906e-06
6.7149544e-06
1.4915672e-05
6.6455931e-05
0.00076591458
0.0011662962
0.0011663049
0.0011663083
0.0011663088
0.0011663087
0.0011663087
0.0011663088
0.0011663088
0.001166309
0.0011663091
0.0011663093
0.0011663095
0.0011663097
0.0011663098
0.0011663099
0.00116631
0.00116631
0.0011663101
0.0011663101
0.0011663102
0.0011663102
0.0011663102
0.0011663102
0.0011663102
0.0011663102
0.0011663102
0.0011663103
0.0011663103
0.0011663103
0.0011663103
0.0011663103
0.0011663103
0.0011663103
0.0011663103
0.0011663103
0.0011663103
0.0011663103
0.0011663103
0.0011663103
0.0011663103
0.0011663103
0.0011663103
0.0011663103
0.0011663103
0.0011663103
0.0011663103
0.0011663103
0.0011663103
0.0011663103
0.0011663103
0.0011663103
0.0011663103
0.0011663103
0.0011663103
0.0011663103
0.0011663103
0.0011663103
0.0011663103
0.0011663103
0.0011663103
0.0011663111
3.9989755e-07
3.9217895e-07
4.0092395e-07
4.254183e-06
3.0917903e-06
1.5526659e-05
2.8415429e-06
6.2762493e-06
1.4096919e-05
1.4116409e-05
6.4666626e-06
1.7009752e-05
6.7155041e-06
3.6137238e-06
3.8046578e-06
6.0680049e-06
1.3392688e-05
5.8985211e-05
0.00066513243
0.0011662949
0.0011663044
0.0011663083
0.0011663088
0.0011663087
0.0011663087
0.0011663088
0.0011663088
0.001166309
0.0011663092
0.0011663093
0.0011663095
0.0011663097
0.0011663098
0.0011663099
0.00116631
0.00116631
0.0011663101
0.0011663101
0.0011663102
0.0011663102
0.0011663102
0.0011663102
0.0011663102
0.0011663102
0.0011663102
0.0011663103
0.0011663103
0.0011663103
0.0011663103
0.0011663103
0.0011663103
0.0011663103
0.0011663103
0.0011663103
0.0011663103
0.0011663103
0.0011663103
0.0011663103
0.0011663103
0.0011663103
0.0011663103
0.0011663103
0.0011663103
0.0011663103
0.0011663103
0.0011663103
0.0011663103
0.0011663103
0.0011663103
0.0011663103
0.0011663103
0.0011663103
0.0011663103
0.0011663103
0.0011663103
0.0011663103
0.0011663103
0.0011663103
0.0011663103
0.0011663111
4.150962e-07
3.3391578e-07
3.1025501e-07
4.2657204e-06
2.5999589e-06
1.88095e-05
2.4437061e-06
6.372091e-06
1.333089e-05
1.1323213e-05
6.3469728e-06
1.5678032e-05
5.9140442e-06
3.3825546e-06
3.53932e-06
5.6431072e-06
1.245703e-05
5.5118102e-05
0.00062761693
0.0011662939
0.0011663042
0.0011663082
0.0011663088
0.0011663087
0.0011663087
0.0011663088
0.0011663089
0.001166309
0.0011663092
0.0011663093
0.0011663095
0.0011663097
0.0011663098
0.0011663099
0.00116631
0.00116631
0.0011663101
0.0011663101
0.0011663102
0.0011663102
0.0011663102
0.0011663102
0.0011663102
0.0011663102
0.0011663102
0.0011663103
0.0011663103
0.0011663103
0.0011663103
0.0011663103
0.0011663103
0.0011663103
0.0011663103
0.0011663103
0.0011663103
0.0011663103
0.0011663103
0.0011663103
0.0011663103
0.0011663103
0.0011663103
0.0011663103
0.0011663103
0.0011663103
0.0011663103
0.0011663103
0.0011663103
0.0011663103
0.0011663103
0.0011663103
0.0011663103
0.0011663103
0.0011663103
0.0011663103
0.0011663103
0.0011663103
0.0011663103
0.0011663103
0.0011663103
0.0011663112
7.8490876e-07
2.8001216e-07
3.2513358e-07
0.00015685828
2.3145693e-06
1.0252654e-05
2.5585263e-06
5.1229908e-06
1.1931082e-05
1.0096555e-05
7.9429069e-06
1.8129834e-05
5.3093142e-06
3.2080449e-06
3.3599309e-06
5.4226721e-06
1.2158632e-05
5.4970488e-05
0.00066003278
0.0011662933
0.0011663042
0.0011663083
0.0011663088
0.0011663087
0.0011663087
0.0011663088
0.0011663089
0.001166309
0.0011663092
0.0011663094
0.0011663095
0.0011663097
0.0011663098
0.0011663099
0.00116631
0.00116631
0.0011663101
0.0011663101
0.0011663102
0.0011663102
0.0011663102
0.0011663102
0.0011663102
0.0011663102
0.0011663102
0.0011663103
0.0011663103
0.0011663103
0.0011663103
0.0011663103
0.0011663103
0.0011663103
0.0011663103
0.0011663103
0.0011663103
0.0011663103
0.0011663103
0.0011663103
0.0011663103
0.0011663103
0.0011663103
0.0011663103
0.0011663103
0.0011663103
0.0011663103
0.0011663103
0.0011663103
0.0011663103
0.0011663103
0.0011663103
0.0011663103
0.0011663103
0.0011663103
0.0011663103
0.0011663103
0.0011663103
0.0011663103
0.0011663103
0.0011663103
0.0011663113
8.6568112e-07
2.4270497e-07
2.8639138e-07
2.0358805e-05
2.4237009e-06
4.4078144e-06
3.2317445e-06
3.2128938e-06
1.0087164e-05
9.7664203e-06
7.6312666e-06
1.5314608e-05
4.8655982e-06
3.0551782e-06
3.2577935e-06
5.4027912e-06
1.2584981e-05
5.9039757e-05
0.00079339768
0.0011662933
0.0011663045
0.0011663083
0.0011663088
0.0011663087
0.0011663087
0.0011663088
0.0011663089
0.001166309
0.0011663092
0.0011663094
0.0011663096
0.0011663097
0.0011663098
0.0011663099
0.00116631
0.0011663101
0.0011663101
0.0011663101
0.0011663102
0.0011663102
0.0011663102
0.0011663102
0.0011663102
0.0011663102
0.0011663102
0.0011663103
0.0011663103
0.0011663103
0.0011663103
0.0011663103
0.0011663103
0.0011663103
0.0011663103
0.0011663103
0.0011663103
0.0011663103
0.0011663103
0.0011663103
0.0011663103
0.0011663103
0.0011663103
0.0011663103
0.0011663103
0.0011663103
0.0011663103
0.0011663103
0.0011663103
0.0011663103
0.0011663103
0.0011663103
0.0011663103
0.0011663103
0.0011663103
0.0011663103
0.0011663103
0.0011663103
0.0011663103
0.0011663103
0.0011663103
0.0011663114
5.4998925e-07
2.3084012e-07
1.9100706e-07
8.3552403e-06
2.5061164e-06
2.1149591e-06
3.0075446e-06
2.4123112e-06
6.5696698e-06
1.0593195e-05
5.6412204e-06
1.0822715e-05
4.5054938e-06
2.9157743e-06
3.2303861e-06
5.5814343e-06
1.3904764e-05
6.8307507e-05
0.0011253744
0.001166294
0.001166305
0.0011663084
0.0011663088
0.0011663087
0.0011663087
0.0011663088
0.0011663089
0.001166309
0.0011663092
0.0011663094
0.0011663096
0.0011663097
0.0011663098
0.0011663099
0.00116631
0.0011663101
0.0011663101
0.0011663101
0.0011663102
0.0011663102
0.0011663102
0.0011663102
0.0011663102
0.0011663102
0.0011663102
0.0011663103
0.0011663103
0.0011663103
0.0011663103
0.0011663103
0.0011663103
0.0011663103
0.0011663103
0.0011663103
0.0011663103
0.0011663103
0.0011663103
0.0011663103
0.0011663103
0.0011663103
0.0011663103
0.0011663103
0.0011663103
0.0011663103
0.0011663103
0.0011663103
0.0011663103
0.0011663103
0.0011663103
0.0011663103
0.0011663103
0.0011663103
0.0011663103
0.0011663103
0.0011663103
0.0011663103
0.0011663103
0.0011663103
0.0011663103
0.0011663114
4.3225257e-07
1.9305856e-07
2.5748838e-07
2.5514233e-06
2.2356631e-06
1.7307232e-06
1.8449933e-06
2.1559753e-06
6.0024805e-06
1.0940767e-05
5.2264294e-06
9.1905395e-06
4.1197014e-06
2.827803e-06
3.2773509e-06
5.9454011e-06
1.6106664e-05
8.4152235e-05
0.0011662911
0.0011662952
0.0011663057
0.0011663085
0.0011663088
0.0011663087
0.0011663087
0.0011663088
0.0011663089
0.0011663091
0.0011663092
0.0011663094
0.0011663096
0.0011663097
0.0011663098
0.0011663099
0.00116631
0.0011663101
0.0011663101
0.0011663101
0.0011663102
0.0011663102
0.0011663102
0.0011663102
0.0011663102
0.0011663102
0.0011663102
0.0011663103
0.0011663103
0.0011663103
0.0011663103
0.0011663103
0.0011663103
0.0011663103
0.0011663103
0.0011663103
0.0011663103
0.0011663103
0.0011663103
0.0011663103
0.0011663103
0.0011663103
0.0011663103
0.0011663103
0.0011663103
0.0011663103
0.0011663103
0.0011663103
0.0011663103
0.0011663103
0.0011663103
0.0011663103
0.0011663103
0.0011663103
0.0011663103
0.0011663103
0.0011663103
0.0011663103
0.0011663103
0.0011663103
0.0011663103
0.0011663115
3.8728983e-07
2.2300882e-07
0.00083076645
1.57594e-06
1.8880899e-06
3.3539023e-06
1.9711935e-06
2.1764888e-06
5.8392926e-06
1.087983e-05
5.0009943e-06
7.8912535e-06
3.7730951e-06
2.7834369e-06
3.3760393e-06
6.4242472e-06
1.897656e-05
0.00010638033
0.0011662894
0.0011662966
0.0011663064
0.0011663086
0.0011663088
0.0011663087
0.0011663087
0.0011663088
0.0011663089
0.0011663091
0.0011663093
0.0011663094
0.0011663096
0.0011663097
0.0011663098
0.0011663099
0.00116631
0.0011663101
0.0011663101
0.0011663101
0.0011663102
0.0011663102
0.0011663102
0.0011663102
0.0011663102
0.0011663102
0.0011663102
0.0011663103
0.0011663103
0.0011663103
0.0011663103
0.0011663103
0.0011663103
0.0011663103
0.0011663103
0.0011663103
0.0011663103
0.0011663103
0.0011663103
0.0011663103
0.0011663103
0.0011663103
0.0011663103
0.0011663103
0.0011663103
0.0011663103
0.0011663103
0.0011663103
0.0011663103
0.0011663103
0.0011663103
0.0011663103
0.0011663103
0.0011663103
0.0011663103
0.0011663103
0.0011663103
0.0011663103
0.0011663103
0.0011663103
0.0011663103
0.0011663115
1.8362522e-07
3.4219932e-06
4.1300724e-07
3.67462e-06
1.5007189e-06
3.026996e-06
2.1659548e-06
2.1701326e-06
6.4164958e-06
1.0572726e-05
5.6252599e-06
7.1527505e-06
3.4953706e-06
2.7770872e-06
3.471538e-06
6.8532667e-06
2.1562412e-05
0.0001280213
0.0011662891
0.0011662977
0.0011663068
0.0011663087
0.0011663088
0.0011663087
0.0011663088
0.0011663088
0.0011663089
0.0011663091
0.0011663093
0.0011663094
0.0011663096
0.0011663097
0.0011663098
0.0011663099
0.00116631
0.0011663101
0.0011663101
0.0011663101
0.0011663102
0.0011663102
0.0011663102
0.0011663102
0.0011663102
0.0011663102
0.0011663102
0.0011663103
0.0011663103
0.0011663103
0.0011663103
0.0011663103
0.0011663103
0.0011663103
0.0011663103