/*--------------------------------*- C++ -*----------------------------------*\
| =========                 |                                                 |
| \\      /  F ield         | OpenFOAM: The Open Source CFD Toolbox           |
|  \\    /   O peration     | Version:  2406                                  |
|   \\  /    A nd           | Website:  www.openfoam.com                      |
|    \\/     M anipulation  |                                                 |
\*---------------------------------------------------------------------------*/
FoamFile
{
    version     2.0;
    format      ascii;
    arch        "LSB;label=32;scalar=64";
    class       volScalarField;
    location    "0.0001";
    object      k;
}
// * * * * * * * * * * * * * * * * * * * * * * * * * * * * * * * * * * * * * //

dimensions      [0 2 -2 0 0 0 0];

internalField   nonuniform List<scalar> 
16000
(
0.010960006
0.0099336418
0.01002098
0.010002272
0.010002104
0.010002445
0.01000153
0.010001501
0.010000789
0.010000264
0.0099995817
0.0099992375
0.0099991046
0.0099990896
0.0099990945
0.0099991025
0.0099991025
0.0099991012
0.0099991001
0.0099991
0.0099991
0.0099991
0.0099991
0.0099991
0.0099991
0.0099991
0.0099991
0.0099991
0.0099991
0.0099991
0.0099991
0.0099991
0.0099991
0.0099991
0.0099991
0.0099991
0.0099991
0.0099991
0.0099991
0.0099991
0.0099991
0.0099991
0.0099991
0.0099991
0.0099991
0.0099991
0.0099991
0.0099991
0.0099991
0.0099991
0.0099991
0.0099991
0.0099991
0.0099991
0.0099991
0.0099991
0.0099991
0.0099991
0.0099991
0.0099991
0.0099991
0.0099991
0.0099991
0.0099991
0.0099991
0.0099991
0.0099991
0.0099991
0.0099991
0.0099991
0.0099991
0.0099991
0.0099991
0.0099991
0.0099991
0.0099991
0.0099991
0.0099991
0.0099991
0.0099991002
0.010961203
0.0099659
0.010007639
0.010005004
0.010002248
0.010001926
0.010001451
0.010001184
0.010000637
0.0099997334
0.0099989836
0.0099987364
0.0099988488
0.0099990268
0.0099990706
0.0099990916
0.009999099
0.0099991022
0.0099991008
0.0099991002
0.0099991
0.0099991
0.0099991
0.0099991
0.0099991
0.0099991
0.0099991
0.0099991
0.0099991
0.0099991
0.0099991
0.0099991
0.0099991
0.0099991
0.0099991
0.0099991
0.0099991
0.0099991
0.0099991
0.0099991
0.0099991
0.0099991
0.0099991
0.0099991
0.0099991
0.0099991
0.0099991
0.0099991
0.0099991
0.0099991
0.0099991
0.0099991
0.0099991
0.0099991
0.0099991
0.0099991
0.0099991
0.0099991
0.0099991
0.0099991
0.0099991
0.0099991
0.0099991
0.0099991
0.0099991
0.0099991
0.0099991
0.0099991
0.0099991
0.0099991
0.0099991
0.0099991
0.0099991
0.0099991
0.0099991
0.0099991
0.0099991
0.0099991
0.0099991
0.0099991004
0.010969185
0.0099941387
0.0099861103
0.010013017
0.0099985143
0.01000193
0.010000184
0.010000064
0.0099996328
0.0099984677
0.0099974446
0.009997525
0.0099981394
0.0099989058
0.0099990451
0.0099990937
0.0099990928
0.0099991031
0.0099991016
0.0099991004
0.0099991
0.0099991
0.0099991
0.0099991
0.0099991
0.0099991
0.0099991
0.0099991
0.0099991
0.0099991
0.0099991
0.0099991
0.0099991
0.0099991
0.0099991
0.0099991
0.0099991
0.0099991
0.0099991
0.0099991
0.0099991
0.0099991
0.0099991
0.0099991
0.0099991
0.0099991
0.0099991
0.0099991
0.0099991
0.0099991
0.0099991
0.0099991
0.0099991
0.0099991
0.0099991
0.0099991
0.0099991
0.0099991
0.0099991
0.0099991
0.0099991
0.0099991
0.0099991
0.0099991
0.0099991
0.0099991
0.0099991
0.0099991
0.0099991
0.0099991
0.0099991
0.0099991
0.0099991
0.0099991
0.0099991
0.0099991
0.0099991
0.0099991
0.0099991
0.0099991006
0.010972242
0.01003466
0.0099526978
0.010026314
0.0099925144
0.010002732
0.0099980513
0.0099989898
0.0099982114
0.0099968878
0.0099955381
0.0099957888
0.0099968667
0.0099984462
0.009999012
0.0099990975
0.0099990878
0.0099991042
0.0099991026
0.0099991007
0.0099991001
0.0099991
0.0099991
0.0099991
0.0099991
0.0099991
0.0099991
0.0099991
0.0099991
0.0099991
0.0099991
0.0099991
0.0099991
0.0099991
0.0099991
0.0099991
0.0099991
0.0099991
0.0099991
0.0099991
0.0099991
0.0099991
0.0099991
0.0099991
0.0099991
0.0099991
0.0099991
0.0099991
0.0099991
0.0099991
0.0099991
0.0099991
0.0099991
0.0099991
0.0099991
0.0099991
0.0099991
0.0099991
0.0099991
0.0099991
0.0099991
0.0099991
0.0099991
0.0099991
0.0099991
0.0099991
0.0099991
0.0099991
0.0099991
0.0099991
0.0099991
0.0099991
0.0099991
0.0099991
0.0099991
0.0099991
0.0099991
0.0099991
0.0099991
0.0099991008
0.01097157
0.010078868
0.0099164661
0.010041673
0.0099824002
0.010005486
0.0099941388
0.0099991439
0.0099964696
0.0099951979
0.0099934644
0.0099938233
0.0099952615
0.009997671
0.0099988483
0.0099991006
0.0099990859
0.0099991049
0.0099991037
0.0099991011
0.0099991001
0.0099991
0.0099991
0.0099991
0.0099991
0.0099991
0.0099991
0.0099991
0.0099991
0.0099991
0.0099991
0.0099991
0.0099991
0.0099991
0.0099991
0.0099991
0.0099991
0.0099991
0.0099991
0.0099991
0.0099991
0.0099991
0.0099991
0.0099991
0.0099991
0.0099991
0.0099991
0.0099991
0.0099991
0.0099991
0.0099991
0.0099991
0.0099991
0.0099991
0.0099991
0.0099991
0.0099991
0.0099991
0.0099991
0.0099991
0.0099991
0.0099991
0.0099991
0.0099991
0.0099991
0.0099991
0.0099991
0.0099991
0.0099991
0.0099991
0.0099991
0.0099991
0.0099991
0.0099991
0.0099991
0.0099991
0.0099991
0.0099991
0.0099991
0.009999101
0.010961914
0.010135055
0.0098715951
0.010059716
0.0099747007
0.010005228
0.0099908977
0.0099986
0.0099937207
0.0099944069
0.0099911618
0.0099917515
0.009993394
0.0099966356
0.0099984959
0.0099991015
0.0099990826
0.009999105
0.009999105
0.0099991017
0.0099991002
0.0099991
0.0099991
0.0099991
0.0099991
0.0099991
0.0099991
0.0099991
0.0099991
0.0099991
0.0099991
0.0099991
0.0099991
0.0099991
0.0099991
0.0099991
0.0099991
0.0099991
0.0099991
0.0099991
0.0099991
0.0099991
0.0099991
0.0099991
0.0099991
0.0099991
0.0099991
0.0099991
0.0099991
0.0099991
0.0099991
0.0099991
0.0099991
0.0099991
0.0099991
0.0099991
0.0099991
0.0099991
0.0099991
0.0099991
0.0099991
0.0099991
0.0099991
0.0099991
0.0099991
0.0099991
0.0099991
0.0099991
0.0099991
0.0099991
0.0099991
0.0099991
0.0099991
0.0099991
0.0099991
0.0099991
0.0099991
0.0099991
0.0099991
0.0099991013
0.010944637
0.010203615
0.0098163515
0.010081899
0.0099666727
0.010004041
0.0099883965
0.0099968919
0.0099909555
0.0099936624
0.0099885223
0.009989761
0.0099913001
0.0099953626
0.0099979817
0.0099990855
0.0099990777
0.0099991047
0.0099991065
0.0099991025
0.0099991003
0.0099991
0.0099991
0.0099991
0.0099991
0.0099991
0.0099991
0.0099991
0.0099991
0.0099991
0.0099991
0.0099991
0.0099991
0.0099991
0.0099991
0.0099991
0.0099991
0.0099991
0.0099991
0.0099991
0.0099991
0.0099991
0.0099991
0.0099991
0.0099991
0.0099991
0.0099991
0.0099991
0.0099991
0.0099991
0.0099991
0.0099991
0.0099991
0.0099991
0.0099991
0.0099991
0.0099991
0.0099991
0.0099991
0.0099991
0.0099991
0.0099991
0.0099991
0.0099991
0.0099991
0.0099991
0.0099991
0.0099991
0.0099991
0.0099991
0.0099991
0.0099991
0.0099991
0.0099991
0.0099991
0.0099991
0.0099991
0.0099991
0.0099991
0.0099991015
0.010916672
0.010288024
0.0097501326
0.010108334
0.0099577354
0.010002964
0.0099865689
0.0099930603
0.009989625
0.0099917762
0.0099855498
0.0099881428
0.0099890002
0.0099938631
0.0099973135
0.0099989876
0.0099990712
0.0099991046
0.0099991081
0.0099991034
0.0099991004
0.0099991
0.0099991
0.0099991
0.0099991
0.0099991
0.0099991
0.0099991
0.0099991
0.0099991
0.0099991
0.0099991
0.0099991
0.0099991
0.0099991
0.0099991
0.0099991
0.0099991
0.0099991
0.0099991
0.0099991
0.0099991
0.0099991
0.0099991
0.0099991
0.0099991
0.0099991
0.0099991
0.0099991
0.0099991
0.0099991
0.0099991
0.0099991
0.0099991
0.0099991
0.0099991
0.0099991
0.0099991
0.0099991
0.0099991
0.0099991
0.0099991
0.0099991
0.0099991
0.0099991
0.0099991
0.0099991
0.0099991
0.0099991
0.0099991
0.0099991
0.0099991
0.0099991
0.0099991
0.0099991
0.0099991
0.0099991
0.0099991
0.0099991
0.0099991018
0.010878868
0.010387984
0.0096730637
0.010138478
0.0099493491
0.010000408
0.0099847288
0.009989326
0.009988247
0.0099884566
0.0099838142
0.0099859503
0.0099865159
0.0099921467
0.0099964931
0.0099988032
0.0099990632
0.0099991063
0.0099991098
0.0099991045
0.0099991006
0.0099991
0.0099991
0.0099991
0.0099991
0.0099991
0.0099991
0.0099991
0.0099991
0.0099991
0.0099991
0.0099991
0.0099991
0.0099991
0.0099991
0.0099991
0.0099991
0.0099991
0.0099991
0.0099991
0.0099991
0.0099991
0.0099991
0.0099991
0.0099991
0.0099991
0.0099991
0.0099991
0.0099991
0.0099991
0.0099991
0.0099991
0.0099991
0.0099991
0.0099991
0.0099991
0.0099991
0.0099991
0.0099991
0.0099991
0.0099991
0.0099991
0.0099991
0.0099991
0.0099991
0.0099991
0.0099991
0.0099991
0.0099991
0.0099991
0.0099991
0.0099991
0.0099991
0.0099991
0.0099991
0.0099991
0.0099991
0.0099991
0.0099991
0.0099991021
0.010829671
0.010507708
0.0095820588
0.010173577
0.009940539
0.0099966898
0.0099831176
0.0099863042
0.0099864242
0.0099848641
0.0099816034
0.009983693
0.0099838399
0.0099902155
0.0099955189
0.0099985373
0.0099990542
0.0099991088
0.0099991115
0.0099991057
0.0099991009
0.0099991
0.0099991
0.0099991
0.0099991
0.0099991
0.0099991
0.0099991
0.0099991
0.0099991
0.0099991
0.0099991
0.0099991
0.0099991
0.0099991
0.0099991
0.0099991
0.0099991
0.0099991
0.0099991
0.0099991
0.0099991
0.0099991
0.0099991
0.0099991
0.0099991
0.0099991
0.0099991
0.0099991
0.0099991
0.0099991
0.0099991
0.0099991
0.0099991
0.0099991
0.0099991
0.0099991
0.0099991
0.0099991
0.0099991
0.0099991
0.0099991
0.0099991
0.0099991
0.0099991
0.0099991
0.0099991
0.0099991
0.0099991
0.0099991
0.0099991
0.0099991
0.0099991
0.0099991
0.0099991
0.0099991
0.0099991
0.0099991
0.0099991
0.0099991024
0.010763238
0.01065741
0.0094701166
0.010215771
0.0099307586
0.0099901404
0.0099839704
0.009982767
0.0099843771
0.0099816446
0.0099790381
0.0099809337
0.0099810433
0.0099880638
0.0099943838
0.009998188
0.0099990444
0.0099991112
0.0099991132
0.0099991071
0.0099991012
0.0099991001
0.0099991
0.0099991
0.0099991
0.0099991
0.0099991
0.0099991
0.0099991
0.0099991
0.0099991
0.0099991
0.0099991
0.0099991
0.0099991
0.0099991
0.0099991
0.0099991
0.0099991
0.0099991
0.0099991
0.0099991
0.0099991
0.0099991
0.0099991
0.0099991
0.0099991
0.0099991
0.0099991
0.0099991
0.0099991
0.0099991
0.0099991
0.0099991
0.0099991
0.0099991
0.0099991
0.0099991
0.0099991
0.0099991
0.0099991
0.0099991
0.0099991
0.0099991
0.0099991
0.0099991
0.0099991
0.0099991
0.0099991
0.0099991
0.0099991
0.0099991
0.0099991
0.0099991
0.0099991
0.0099991
0.0099991
0.0099991
0.0099991
0.0099991028
0.010675466
0.01084332
0.0093334191
0.010266124
0.0099194229
0.0099827287
0.0099851153
0.0099788113
0.0099822355
0.0099789662
0.0099760286
0.0099773409
0.0099783134
0.0099856767
0.0099930774
0.0099977513
0.0099990192
0.0099991135
0.0099991149
0.0099991087
0.0099991016
0.0099991001
0.0099991
0.0099991
0.0099991
0.0099991
0.0099991
0.0099991
0.0099991
0.0099991
0.0099991
0.0099991
0.0099991
0.0099991
0.0099991
0.0099991
0.0099991
0.0099991
0.0099991
0.0099991
0.0099991
0.0099991
0.0099991
0.0099991
0.0099991
0.0099991
0.0099991
0.0099991
0.0099991
0.0099991
0.0099991
0.0099991
0.0099991
0.0099991
0.0099991
0.0099991
0.0099991
0.0099991
0.0099991
0.0099991
0.0099991
0.0099991
0.0099991
0.0099991
0.0099991
0.0099991
0.0099991
0.0099991
0.0099991
0.0099991
0.0099991
0.0099991
0.0099991
0.0099991
0.0099991
0.0099991
0.0099991
0.0099991
0.0099991
0.0099991031
0.010571584
0.011058558
0.0091752274
0.010324063
0.0099062075
0.0099744736
0.0099868644
0.0099741514
0.0099801004
0.0099760679
0.0099730132
0.009973376
0.0099754137
0.0099830314
0.009991584
0.0099972208
0.0099989553
0.0099991157
0.0099991163
0.0099991104
0.0099991021
0.0099991001
0.0099991
0.0099991
0.0099991
0.0099991
0.0099991
0.0099991
0.0099991
0.0099991
0.0099991
0.0099991
0.0099991
0.0099991
0.0099991
0.0099991
0.0099991
0.0099991
0.0099991
0.0099991
0.0099991
0.0099991
0.0099991
0.0099991
0.0099991
0.0099991
0.0099991
0.0099991
0.0099991
0.0099991
0.0099991
0.0099991
0.0099991
0.0099991
0.0099991
0.0099991
0.0099991
0.0099991
0.0099991
0.0099991
0.0099991
0.0099991
0.0099991
0.0099991
0.0099991
0.0099991
0.0099991
0.0099991
0.0099991
0.0099991
0.0099991
0.0099991
0.0099991
0.0099991
0.0099991
0.0099991
0.0099991
0.0099991
0.0099991
0.0099991035
0.010455593
0.011298509
0.0089969532
0.010389751
0.0098910879
0.0099650573
0.0099895207
0.0099683611
0.00997802
0.0099728545
0.0099699971
0.009969139
0.0099722891
0.009980106
0.0099898857
0.0099965877
0.0099988501
0.009999118
0.0099991175
0.0099991123
0.0099991027
0.0099991002
0.0099991
0.0099991
0.0099991
0.0099991
0.0099991
0.0099991
0.0099991
0.0099991
0.0099991
0.0099991
0.0099991
0.0099991
0.0099991
0.0099991
0.0099991
0.0099991
0.0099991
0.0099991
0.0099991
0.0099991
0.0099991
0.0099991
0.0099991
0.0099991
0.0099991
0.0099991
0.0099991
0.0099991
0.0099991
0.0099991
0.0099991
0.0099991
0.0099991
0.0099991
0.0099991
0.0099991
0.0099991
0.0099991
0.0099991
0.0099991
0.0099991
0.0099991
0.0099991
0.0099991
0.0099991
0.0099991
0.0099991
0.0099991
0.0099991
0.0099991
0.0099991
0.0099991
0.0099991
0.0099991
0.0099991
0.0099991
0.0099991
0.0099991039
0.010319577
0.011576583
0.0087912682
0.010465292
0.0098733689
0.0099537416
0.0099936359
0.0099607781
0.0099762507
0.0099692357
0.0099668937
0.0099646525
0.0099689116
0.0099768832
0.0099879631
0.0099958415
0.0099987006
0.0099991204
0.0099991186
0.0099991144
0.0099991034
0.0099991003
0.0099991
0.0099991
0.0099991
0.0099991
0.0099991
0.0099991
0.0099991
0.0099991
0.0099991
0.0099991
0.0099991
0.0099991
0.0099991
0.0099991
0.0099991
0.0099991
0.0099991
0.0099991
0.0099991
0.0099991
0.0099991
0.0099991
0.0099991
0.0099991
0.0099991
0.0099991
0.0099991
0.0099991
0.0099991
0.0099991
0.0099991
0.0099991
0.0099991
0.0099991
0.0099991
0.0099991
0.0099991
0.0099991
0.0099991
0.0099991
0.0099991
0.0099991
0.0099991
0.0099991
0.0099991
0.0099991
0.0099991
0.0099991
0.0099991
0.0099991
0.0099991
0.0099991
0.0099991
0.0099991
0.0099991
0.0099991
0.0099991
0.0099991044
0.010158244
0.01190054
0.0085531259
0.010551786
0.0098523174
0.0099402475
0.0099997158
0.0099509704
0.0099747788
0.0099650557
0.0099635899
0.0099598686
0.0099652179
0.0099733358
0.0099857977
0.0099949728
0.0099985034
0.0099991232
0.0099991197
0.0099991167
0.0099991043
0.0099991004
0.0099991
0.0099991
0.0099991
0.0099991
0.0099991
0.0099991
0.0099991
0.0099991
0.0099991
0.0099991
0.0099991
0.0099991
0.0099991
0.0099991
0.0099991
0.0099991
0.0099991
0.0099991
0.0099991
0.0099991
0.0099991
0.0099991
0.0099991
0.0099991
0.0099991
0.0099991
0.0099991
0.0099991
0.0099991
0.0099991
0.0099991
0.0099991
0.0099991
0.0099991
0.0099991
0.0099991
0.0099991
0.0099991
0.0099991
0.0099991
0.0099991
0.0099991
0.0099991
0.0099991
0.0099991
0.0099991
0.0099991
0.0099991
0.0099991
0.0099991
0.0099991
0.0099991
0.0099991
0.0099991
0.0099991
0.0099991
0.0099991001
0.0099991049
0.0099735944
0.012264431
0.0082853431
0.01064978
0.0098254572
0.0099251356
0.010007456
0.0099387282
0.009973611
0.0099602034
0.0099599362
0.0099546599
0.0099610621
0.009969405
0.0099833653
0.0099939735
0.0099982568
0.0099991266
0.0099991211
0.0099991192
0.0099991053
0.0099991005
0.0099991
0.0099991
0.0099991
0.0099991
0.0099991
0.0099991
0.0099991
0.0099991
0.0099991
0.0099991
0.0099991
0.0099991
0.0099991
0.0099991
0.0099991
0.0099991
0.0099991
0.0099991
0.0099991
0.0099991
0.0099991
0.0099991
0.0099991
0.0099991
0.0099991
0.0099991
0.0099991
0.0099991
0.0099991
0.0099991
0.0099991
0.0099991
0.0099991
0.0099991
0.0099991
0.0099991
0.0099991
0.0099991
0.0099991
0.0099991
0.0099991
0.0099991
0.0099991
0.0099991
0.0099991
0.0099991
0.0099991
0.0099991
0.0099991
0.0099991
0.0099991
0.0099991
0.0099991
0.0099991
0.0099991
0.0099991
0.0099991001
0.0099991054
0.0097596603
0.012672806
0.0079854377
0.010757498
0.0097955142
0.0099072896
0.010017482
0.0099243272
0.0099729075
0.0099547904
0.0099559128
0.0099488825
0.0099563714
0.0099650326
0.0099806447
0.0099928425
0.0099979621
0.0099991314
0.0099991234
0.0099991219
0.0099991063
0.0099991006
0.0099990999
0.0099991
0.0099991
0.0099991
0.0099991
0.0099991
0.0099991
0.0099991
0.0099991
0.0099991
0.0099991
0.0099991
0.0099991
0.0099991
0.0099991
0.0099991
0.0099991
0.0099991
0.0099991
0.0099991
0.0099991
0.0099991
0.0099991
0.0099991
0.0099991
0.0099991
0.0099991
0.0099991
0.0099991
0.0099991
0.0099991
0.0099991
0.0099991
0.0099991
0.0099991
0.0099991
0.0099991
0.0099991
0.0099991
0.0099991
0.0099991
0.0099991
0.0099991
0.0099991
0.0099991
0.0099991
0.0099991
0.0099991
0.0099991
0.0099991
0.0099991
0.0099991
0.0099991
0.0099991
0.0099991
0.0099991
0.0099991001
0.0099991059
0.0094997582
0.013145174
0.0076452759
0.010872811
0.0097624989
0.0098839601
0.010030673
0.0099077937
0.0099723407
0.0099490541
0.0099517517
0.0099426639
0.0099512633
0.0099602874
0.0099776866
0.0099916066
0.0099976289
0.0099991353
0.0099991268
0.0099991249
0.0099991075
0.0099991008
0.0099990999
0.0099991
0.0099991
0.0099991
0.0099991
0.0099991
0.0099991
0.0099991
0.0099991
0.0099991
0.0099991
0.0099991
0.0099991
0.0099991
0.0099991
0.0099991
0.0099991
0.0099991
0.0099991
0.0099991
0.0099991
0.0099991
0.0099991
0.0099991
0.0099991
0.0099991
0.0099991
0.0099991
0.0099991
0.0099991
0.0099991
0.0099991
0.0099991
0.0099991
0.0099991
0.0099991
0.0099991
0.0099991
0.0099991
0.0099991
0.0099991
0.0099991
0.0099991
0.0099991
0.0099991
0.0099991
0.0099991
0.0099991
0.0099991
0.0099991
0.0099991
0.0099991
0.0099991
0.0099991
0.0099991
0.0099991
0.0099991001
0.0099991065
0.0091690799
0.013761523
0.0071924298
0.011011199
0.0097139042
0.0098617863
0.010047653
0.0098893392
0.0099722863
0.0099430439
0.0099475158
0.0099363798
0.0099461246
0.0099554708
0.0099747067
0.0099903544
0.009997285
0.0099991294
0.0099991306
0.0099991278
0.0099991086
0.0099991009
0.0099990999
0.0099991
0.0099991
0.0099991
0.0099991
0.0099991
0.0099991
0.0099991
0.0099991
0.0099991
0.0099991
0.0099991
0.0099991
0.0099991
0.0099991
0.0099991
0.0099991
0.0099991
0.0099991
0.0099991
0.0099991
0.0099991
0.0099991
0.0099991
0.0099991
0.0099991
0.0099991
0.0099991
0.0099991
0.0099991
0.0099991
0.0099991
0.0099991
0.0099991
0.0099991
0.0099991
0.0099991
0.0099991
0.0099991
0.0099991
0.0099991
0.0099991
0.0099991
0.0099991
0.0099991
0.0099991
0.0099991
0.0099991
0.0099991
0.0099991
0.0099991
0.0099991
0.0099991
0.0099991
0.0099991
0.0099991
0.0099991001
0.0099991071
0.008819858
0.014469326
0.0066919982
0.011154282
0.0096621798
0.009824208
0.010085203
0.0098586971
0.0099775622
0.0099346567
0.0099431926
0.0099305648
0.0099413899
0.0099510641
0.0099720308
0.0099892532
0.0099969831
0.0099991201
0.0099991344
0.0099991306
0.0099991095
0.009999101
0.0099990999
0.0099991
0.0099991
0.0099991
0.0099991
0.0099991
0.0099991
0.0099991
0.0099991
0.0099991
0.0099991
0.0099991
0.0099991
0.0099991
0.0099991
0.0099991
0.0099991
0.0099991
0.0099991
0.0099991
0.0099991
0.0099991
0.0099991
0.0099991
0.0099991
0.0099991
0.0099991
0.0099991
0.0099991
0.0099991
0.0099991
0.0099991
0.0099991
0.0099991
0.0099991
0.0099991
0.0099991
0.0099991
0.0099991
0.0099991
0.0099991
0.0099991
0.0099991
0.0099991
0.0099991
0.0099991
0.0099991
0.0099991
0.0099991
0.0099991
0.0099991
0.0099991
0.0099991
0.0099991
0.0099991
0.0099991
0.0099991001
0.0099991077
0.0084744899
0.015090896
0.0062444935
0.011262723
0.0096168579
0.0097871384
0.010122737
0.0098283988
0.0099836676
0.0099266504
0.0099399737
0.0099270475
0.0099367002
0.0099475375
0.0099700496
0.0099885098
0.0099967957
0.0099991185
0.0099991379
0.0099991327
0.0099991101
0.009999101
0.0099990999
0.0099991
0.0099991
0.0099991
0.0099991
0.0099991
0.0099991
0.0099991
0.0099991
0.0099991
0.0099991
0.0099991
0.0099991
0.0099991
0.0099991
0.0099991
0.0099991
0.0099991
0.0099991
0.0099991
0.0099991
0.0099991
0.0099991
0.0099991
0.0099991
0.0099991
0.0099991
0.0099991
0.0099991
0.0099991
0.0099991
0.0099991
0.0099991
0.0099991
0.0099991
0.0099991
0.0099991
0.0099991
0.0099991
0.0099991
0.0099991
0.0099991
0.0099991
0.0099991
0.0099991
0.0099991
0.0099991
0.0099991
0.0099991
0.0099991
0.0099991
0.0099991
0.0099991
0.0099991
0.0099991
0.0099991
0.0099991001
0.0099991083
0.0082220267
0.015600775
0.0058821899
0.011348673
0.0095647512
0.0097577506
0.010149774
0.0098094257
0.0099864955
0.0099222117
0.0099372071
0.009927441
0.0099312371
0.0099453273
0.0099691341
0.0099883154
0.0099967885
0.0099991339
0.0099991408
0.0099991337
0.00999911
0.0099991009
0.0099990999
0.0099991
0.0099991
0.0099991
0.0099991
0.0099991
0.0099991
0.0099991
0.0099991
0.0099991
0.0099991
0.0099991
0.0099991
0.0099991
0.0099991
0.0099991
0.0099991
0.0099991
0.0099991
0.0099991
0.0099991
0.0099991
0.0099991
0.0099991
0.0099991
0.0099991
0.0099991
0.0099991
0.0099991
0.0099991
0.0099991
0.0099991
0.0099991
0.0099991
0.0099991
0.0099991
0.0099991
0.0099991
0.0099991
0.0099991
0.0099991
0.0099991
0.0099991
0.0099991
0.0099991
0.0099991
0.0099991
0.0099991
0.0099991
0.0099991
0.0099991
0.0099991
0.0099991
0.0099991
0.0099991
0.0099991
0.0099991001
0.009999109
0.0080975402
0.01587669
0.0056095734
0.011472242
0.0095171504
0.0097380972
0.010164451
0.0098088072
0.0099810109
0.0099293993
0.009933299
0.0099277707
0.0099259013
0.009944699
0.0099695452
0.0099887764
0.0099969879
0.0099991648
0.0099991424
0.0099991334
0.0099991093
0.0099991008
0.0099990999
0.0099991
0.0099991
0.0099991
0.0099991
0.0099991
0.0099991
0.0099991
0.0099991
0.0099991
0.0099991
0.0099991
0.0099991
0.0099991
0.0099991
0.0099991
0.0099991
0.0099991
0.0099991
0.0099991
0.0099991
0.0099991
0.0099991
0.0099991
0.0099991
0.0099991
0.0099991
0.0099991
0.0099991
0.0099991
0.0099991
0.0099991
0.0099991
0.0099991
0.0099991
0.0099991
0.0099991
0.0099991
0.0099991
0.0099991
0.0099991
0.0099991
0.0099991
0.0099991
0.0099991
0.0099991
0.0099991
0.0099991
0.0099991
0.0099991
0.0099991
0.0099991
0.0099991
0.0099991
0.0099991
0.0099991
0.0099991001
0.0099991096
0.0078098199
0.016182427
0.005328207
0.011523676
0.0095308707
0.0097227565
0.010151491
0.0098446275
0.0099614605
0.0099431554
0.0099332921
0.0099216023
0.0099248199
0.0099458102
0.0099712188
0.0099898092
0.0099973492
0.009999197
0.0099991426
0.0099991318
0.009999108
0.0099991006
0.0099990999
0.0099991
0.0099991
0.0099991
0.0099991
0.0099991
0.0099991
0.0099991
0.0099991
0.0099991
0.0099991
0.0099991
0.0099991
0.0099991
0.0099991
0.0099991
0.0099991
0.0099991
0.0099991
0.0099991
0.0099991
0.0099991
0.0099991
0.0099991
0.0099991
0.0099991
0.0099991
0.0099991
0.0099991
0.0099991
0.0099991
0.0099991
0.0099991
0.0099991
0.0099991
0.0099991
0.0099991
0.0099991
0.0099991
0.0099991
0.0099991
0.0099991
0.0099991
0.0099991
0.0099991
0.0099991
0.0099991
0.0099991
0.0099991
0.0099991
0.0099991
0.0099991
0.0099991
0.0099991
0.0099991
0.0099991
0.0099991001
0.0099991102
0.007302322
0.016685246
0.0051304124
0.011393824
0.0096279965
0.0097307766
0.010102525
0.0099051765
0.0099505096
0.0099425873
0.0099356896
0.0099197096
0.0099256189
0.0099484637
0.0099737495
0.0099911482
0.0099977724
0.0099992112
0.0099991429
0.009999129
0.0099991064
0.0099991004
0.0099990999
0.0099991
0.0099991
0.0099991
0.0099991
0.0099991
0.0099991
0.0099991
0.0099991
0.0099991
0.0099991
0.0099991
0.0099991
0.0099991
0.0099991
0.0099991
0.0099991
0.0099991
0.0099991
0.0099991
0.0099991
0.0099991
0.0099991
0.0099991
0.0099991
0.0099991
0.0099991
0.0099991
0.0099991
0.0099991
0.0099991
0.0099991
0.0099991
0.0099991
0.0099991
0.0099991
0.0099991
0.0099991
0.0099991
0.0099991
0.0099991
0.0099991
0.0099991
0.0099991
0.0099991
0.0099991
0.0099991
0.0099991
0.0099991
0.0099991
0.0099991
0.0099991
0.0099991
0.0099991
0.0099991
0.0099991
0.0099991001
0.0099991107
0.007097084
0.016884715
0.005253775
0.011176459
0.0098209079
0.0097542856
0.010045725
0.009939853
0.0099564554
0.0099406289
0.0099367489
0.0099199034
0.0099274922
0.0099518184
0.0099764515
0.0099924356
0.0099981434
0.0099992055
0.0099991434
0.009999126
0.0099991049
0.0099991002
0.0099990999
0.0099991
0.0099991
0.0099991
0.0099991
0.0099991
0.0099991
0.0099991
0.0099991
0.0099991
0.0099991
0.0099991
0.0099991
0.0099991
0.0099991
0.0099991
0.0099991
0.0099991
0.0099991
0.0099991
0.0099991
0.0099991
0.0099991
0.0099991
0.0099991
0.0099991
0.0099991
0.0099991
0.0099991
0.0099991
0.0099991
0.0099991
0.0099991
0.0099991
0.0099991
0.0099991
0.0099991
0.0099991
0.0099991
0.0099991
0.0099991
0.0099991
0.0099991
0.0099991
0.0099991
0.0099991
0.0099991
0.0099991
0.0099991
0.0099991
0.0099991
0.0099991
0.0099991
0.0099991
0.0099991
0.0099991
0.0099991001
0.0099991112
0.007425434
0.016084809
0.0057106533
0.011157931
0.0098942881
0.0098893531
0.0099957374
0.0099397198
0.0099601756
0.0099422316
0.0099364431
0.0099211003
0.0099292913
0.0099547791
0.0099785029
0.009993334
0.0099983771
0.0099991989
0.009999143
0.0099991236
0.009999104
0.0099991001
0.0099990999
0.0099991
0.0099991
0.0099991
0.0099991
0.0099991
0.0099991
0.0099991
0.0099991
0.0099991
0.0099991
0.0099991
0.0099991
0.0099991
0.0099991
0.0099991
0.0099991
0.0099991
0.0099991
0.0099991
0.0099991
0.0099991
0.0099991
0.0099991
0.0099991
0.0099991
0.0099991
0.0099991
0.0099991
0.0099991
0.0099991
0.0099991
0.0099991
0.0099991
0.0099991
0.0099991
0.0099991
0.0099991
0.0099991
0.0099991
0.0099991
0.0099991
0.0099991
0.0099991
0.0099991
0.0099991
0.0099991
0.0099991
0.0099991
0.0099991
0.0099991
0.0099991
0.0099991
0.0099991
0.0099991
0.0099991
0.0099991001
0.0099991116
0.0078011253
0.014895071
0.0064007426
0.01107444
0.0099219829
0.0099413463
0.00997474
0.0099442356
0.0099622487
0.0099434873
0.0099356961
0.0099227797
0.0099300436
0.0099561859
0.0099791849
0.0099935849
0.0099984279
0.0099991969
0.0099991426
0.0099991229
0.0099991038
0.0099991001
0.0099990999
0.0099991
0.0099991
0.0099991
0.0099991
0.0099991
0.0099991
0.0099991
0.0099991
0.0099991
0.0099991
0.0099991
0.0099991
0.0099991
0.0099991
0.0099991
0.0099991
0.0099991
0.0099991
0.0099991
0.0099991
0.0099991
0.0099991
0.0099991
0.0099991
0.0099991
0.0099991
0.0099991
0.0099991
0.0099991
0.0099991
0.0099991
0.0099991
0.0099991
0.0099991
0.0099991
0.0099991
0.0099991
0.0099991
0.0099991
0.0099991
0.0099991
0.0099991
0.0099991
0.0099991
0.0099991
0.0099991
0.0099991
0.0099991
0.0099991
0.0099991
0.0099991
0.0099991
0.0099991
0.0099991
0.0099991
0.0099991001
0.0099991117
0.0078925494
0.014692379
0.0067074446
0.01097146
0.0099353461
0.0099449692
0.0099708488
0.0099477497
0.009963395
0.0099445979
0.0099361256
0.0099242472
0.0099291635
0.0099547741
0.0099777023
0.0099927942
0.009998189
0.0099992009
0.0099991395
0.0099991249
0.0099991051
0.0099991003
0.0099990999
0.0099991
0.0099991
0.0099991
0.0099991
0.0099991
0.0099991
0.0099991
0.0099991
0.0099991
0.0099991
0.0099991
0.0099991
0.0099991
0.0099991
0.0099991
0.0099991
0.0099991
0.0099991
0.0099991
0.0099991
0.0099991
0.0099991
0.0099991
0.0099991
0.0099991
0.0099991
0.0099991
0.0099991
0.0099991
0.0099991
0.0099991
0.0099991
0.0099991
0.0099991
0.0099991
0.0099991
0.0099991
0.0099991
0.0099991
0.0099991
0.0099991
0.0099991
0.0099991
0.0099991
0.0099991
0.0099991
0.0099991
0.0099991
0.0099991
0.0099991
0.0099991
0.0099991
0.0099991
0.0099991
0.0099991
0.0099991001
0.0099991117
0.01148524
0.0090726278
0.010501017
0.0099053142
0.010038262
0.010038178
0.010019172
0.010027642
0.010025168
0.010030103
0.010025343
0.010020373
0.010011764
0.010004589
0.010000844
0.0099993393
0.0099990896
0.0099990894
0.0099990976
0.0099990998
0.0099991001
0.0099991001
0.0099991
0.0099991
0.0099991
0.0099991
0.0099991
0.0099991
0.0099991
0.0099991
0.0099991
0.0099991
0.0099991
0.0099991
0.0099991
0.0099991
0.0099991
0.0099991
0.0099991
0.0099991
0.0099991
0.0099991
0.0099991
0.0099991
0.0099991
0.0099991
0.0099991
0.0099991
0.0099991
0.0099991
0.0099991
0.0099991
0.0099991
0.0099991
0.0099991
0.0099991
0.0099991
0.0099991
0.0099991
0.0099991
0.0099991
0.0099991
0.0099991
0.0099991
0.0099991
0.0099991
0.0099991
0.0099991
0.0099991
0.0099991
0.0099991
0.0099991
0.0099991
0.0099991
0.0099991
0.0099991
0.0099991
0.0099991
0.0099991
0.0099991
0.011509479
0.0090756812
0.01052185
0.0098903214
0.010025324
0.010035096
0.010017599
0.010027562
0.010026202
0.01003028
0.010027677
0.010020664
0.010012579
0.010005197
0.010001175
0.0099994311
0.0099990935
0.0099990878
0.0099990968
0.0099990997
0.0099991001
0.0099991001
0.0099991
0.0099991
0.0099991
0.0099991
0.0099991
0.0099991
0.0099991
0.0099991
0.0099991
0.0099991
0.0099991
0.0099991
0.0099991
0.0099991
0.0099991
0.0099991
0.0099991
0.0099991
0.0099991
0.0099991
0.0099991
0.0099991
0.0099991
0.0099991
0.0099991
0.0099991
0.0099991
0.0099991
0.0099991
0.0099991
0.0099991
0.0099991
0.0099991
0.0099991
0.0099991
0.0099991
0.0099991
0.0099991
0.0099991
0.0099991
0.0099991
0.0099991
0.0099991
0.0099991
0.0099991
0.0099991
0.0099991
0.0099991
0.0099991
0.0099991
0.0099991
0.0099991
0.0099991
0.0099991
0.0099991
0.0099991
0.0099991
0.0099991001
0.011494216
0.0091108007
0.010499702
0.0099059436
0.010030177
0.010041586
0.010013777
0.010031775
0.010027327
0.010030325
0.010028418
0.010020368
0.010012415
0.010005145
0.010001173
0.0099994371
0.0099990949
0.0099990881
0.0099990968
0.0099990997
0.0099991001
0.0099991001
0.0099991
0.0099991
0.0099991
0.0099991
0.0099991
0.0099991
0.0099991
0.0099991
0.0099991
0.0099991
0.0099991
0.0099991
0.0099991
0.0099991
0.0099991
0.0099991
0.0099991
0.0099991
0.0099991
0.0099991
0.0099991
0.0099991
0.0099991
0.0099991
0.0099991
0.0099991
0.0099991
0.0099991
0.0099991
0.0099991
0.0099991
0.0099991
0.0099991
0.0099991
0.0099991
0.0099991
0.0099991
0.0099991
0.0099991
0.0099991
0.0099991
0.0099991
0.0099991
0.0099991
0.0099991
0.0099991
0.0099991
0.0099991
0.0099991
0.0099991
0.0099991
0.0099991
0.0099991
0.0099991
0.0099991
0.0099991
0.0099991
0.0099991001
0.011476054
0.0091368638
0.010487481
0.0099082431
0.010028112
0.010041561
0.010014004
0.010031488
0.010027096
0.010030064
0.010027676
0.010019912
0.010012178
0.010005063
0.01000115
0.0099994346
0.0099990955
0.0099990884
0.0099990968
0.0099990997
0.0099991001
0.0099991001
0.0099991
0.0099991
0.0099991
0.0099991
0.0099991
0.0099991
0.0099991
0.0099991
0.0099991
0.0099991
0.0099991
0.0099991
0.0099991
0.0099991
0.0099991
0.0099991
0.0099991
0.0099991
0.0099991
0.0099991
0.0099991
0.0099991
0.0099991
0.0099991
0.0099991
0.0099991
0.0099991
0.0099991
0.0099991
0.0099991
0.0099991
0.0099991
0.0099991