/*--------------------------------*- C++ -*----------------------------------*\
| =========                 |                                                 |
| \\      /  F ield         | OpenFOAM: The Open Source CFD Toolbox           |
|  \\    /   O peration     | Version:  2406                                  |
|   \\  /    A nd           | Website:  www.openfoam.com                      |
|    \\/     M anipulation  |                                                 |
\*---------------------------------------------------------------------------*/
FoamFile
{
    version     2.0;
    format      ascii;
    arch        "LSB;label=32;scalar=64";
    class       volScalarField;
    location    "0.0001";
    object      Ma;
}
// * * * * * * * * * * * * * * * * * * * * * * * * * * * * * * * * * * * * * //

dimensions      [0 0 0 0 0 0 0];

internalField   nonuniform List<scalar> 
16000
(
0.058696541
0.058574307
0.05860811
0.058517713
0.058458811
0.058361498
0.058304902
0.058208281
0.058147237
0.058032724
0.057932093
0.057820793
0.057755559
0.057719146
0.05770875
0.057706207
0.057706023
0.057706038
0.057706066
0.057706071
0.057706072
0.057706072
0.057706072
0.057706072
0.057706072
0.057706072
0.057706072
0.057706072
0.057706072
0.057706072
0.057706072
0.057706072
0.057706072
0.057706072
0.057706072
0.057706072
0.057706072
0.057706072
0.057706072
0.057706072
0.057706072
0.057706072
0.057706072
0.057706072
0.057706072
0.057706072
0.057706072
0.057706072
0.057706072
0.057706072
0.057706072
0.057706072
0.057706072
0.057706072
0.057706072
0.057706072
0.057706072
0.057706072
0.057706072
0.057706072
0.057706072
0.057706072
0.057706072
0.057706072
0.057706072
0.057706072
0.057706072
0.057706072
0.057706072
0.057706072
0.057706072
0.057706072
0.057706072
0.057706072
0.057706072
0.057706072
0.057706072
0.057706072
0.057706072
0.057706072
0.058545979
0.058713657
0.058579463
0.058627535
0.05846007
0.058422611
0.058304991
0.058232165
0.058143186
0.0580241
0.057910657
0.057797236
0.05773736
0.057710625
0.057705888
0.057705502
0.05770595
0.057706055
0.057706076
0.057706073
0.057706072
0.057706072
0.057706072
0.057706072
0.057706072
0.057706072
0.057706072
0.057706072
0.057706072
0.057706072
0.057706072
0.057706072
0.057706072
0.057706072
0.057706072
0.057706072
0.057706072
0.057706072
0.057706072
0.057706072
0.057706072
0.057706072
0.057706072
0.057706072
0.057706072
0.057706072
0.057706072
0.057706072
0.057706072
0.057706072
0.057706072
0.057706072
0.057706072
0.057706072
0.057706072
0.057706072
0.057706072
0.057706072
0.057706072
0.057706072
0.057706072
0.057706072
0.057706072
0.057706072
0.057706072
0.057706072
0.057706072
0.057706072
0.057706072
0.057706072
0.057706072
0.057706072
0.057706072
0.057706072
0.057706072
0.057706072
0.057706072
0.057706072
0.057706072
0.057706072
0.058328801
0.058801828
0.058612513
0.058684805
0.058476075
0.058455363
0.058304173
0.05824837
0.058142173
0.058017308
0.05789081
0.057769187
0.057711624
0.057692855
0.057697931
0.057702996
0.057705532
0.057706045
0.057706099
0.057706081
0.057706073
0.057706072
0.057706072
0.057706072
0.057706072
0.057706072
0.057706072
0.057706072
0.057706072
0.057706072
0.057706072
0.057706072
0.057706072
0.057706072
0.057706072
0.057706072
0.057706072
0.057706072
0.057706072
0.057706072
0.057706072
0.057706072
0.057706072
0.057706072
0.057706072
0.057706072
0.057706072
0.057706072
0.057706072
0.057706072
0.057706072
0.057706072
0.057706072
0.057706072
0.057706072
0.057706072
0.057706072
0.057706072
0.057706072
0.057706072
0.057706072
0.057706072
0.057706072
0.057706072
0.057706072
0.057706072
0.057706072
0.057706072
0.057706072
0.057706072
0.057706072
0.057706072
0.057706072
0.057706072
0.057706072
0.057706072
0.057706072
0.057706072
0.057706072
0.057706072
0.058100617
0.058873495
0.058628025
0.058711277
0.058506935
0.058461603
0.058304095
0.058256391
0.058137923
0.058005918
0.05786626
0.057731086
0.057673791
0.057665073
0.057685174
0.057698829
0.057704798
0.057706014
0.057706133
0.057706094
0.057706075
0.057706071
0.057706071
0.057706072
0.057706072
0.057706072
0.057706072
0.057706072
0.057706072
0.057706072
0.057706072
0.057706072
0.057706072
0.057706072
0.057706072
0.057706072
0.057706072
0.057706072
0.057706072
0.057706072
0.057706072
0.057706072
0.057706072
0.057706072
0.057706072
0.057706072
0.057706072
0.057706072
0.057706072
0.057706072
0.057706072
0.057706072
0.057706072
0.057706072
0.057706072
0.057706072
0.057706072
0.057706072
0.057706072
0.057706072
0.057706072
0.057706072
0.057706072
0.057706072
0.057706072
0.057706072
0.057706072
0.057706072
0.057706072
0.057706072
0.057706072
0.057706072
0.057706072
0.057706072
0.057706072
0.057706072
0.057706072
0.057706072
0.057706072
0.057706072
0.057817694
0.058946928
0.058626633
0.05874699
0.058534329
0.058470641
0.058318096
0.058257314
0.05813758
0.057987556
0.057837074
0.057684455
0.057625108
0.057627308
0.057666542
0.057692401
0.057703546
0.057705929
0.057706176
0.057706112
0.057706078
0.057706071
0.057706071
0.057706072
0.057706072
0.057706072
0.057706072
0.057706072
0.057706072
0.057706072
0.057706072
0.057706072
0.057706072
0.057706072
0.057706072
0.057706072
0.057706072
0.057706072
0.057706072
0.057706072
0.057706072
0.057706072
0.057706072
0.057706072
0.057706072
0.057706072
0.057706072
0.057706072
0.057706072
0.057706072
0.057706072
0.057706072
0.057706072
0.057706072
0.057706072
0.057706072
0.057706072
0.057706072
0.057706072
0.057706072
0.057706072
0.057706072
0.057706072
0.057706072
0.057706072
0.057706072
0.057706072
0.057706072
0.057706072
0.057706072
0.057706072
0.057706072
0.057706072
0.057706072
0.057706072
0.057706072
0.057706072
0.057706072
0.057706072
0.057706072
0.057589067
0.059064454
0.058613377
0.0588057
0.058561962
0.05848698
0.058339594
0.058250559
0.058139671
0.057967031
0.057804285
0.057630466
0.057564673
0.057577423
0.057640299
0.05768281
0.057701508
0.057705742
0.057706228
0.057706139
0.057706084
0.057706072
0.057706071
0.057706072
0.057706072
0.057706072
0.057706072
0.057706072
0.057706072
0.057706072
0.057706072
0.057706072
0.057706072
0.057706072
0.057706072
0.057706072
0.057706072
0.057706072
0.057706072
0.057706072
0.057706072
0.057706072
0.057706072
0.057706072
0.057706072
0.057706072
0.057706072
0.057706072
0.057706072
0.057706072
0.057706072
0.057706072
0.057706072
0.057706072
0.057706072
0.057706072
0.057706072
0.057706072
0.057706072
0.057706072
0.057706072
0.057706072
0.057706072
0.057706072
0.057706072
0.057706072
0.057706072
0.057706072
0.057706072
0.057706072
0.057706072
0.057706072
0.057706072
0.057706072
0.057706072
0.057706072
0.057706072
0.057706072
0.057706072
0.057706072
0.057437671
0.059213062
0.058593574
0.058888409
0.058585757
0.058515605
0.058352172
0.058238735
0.058136236
0.057948013
0.057765897
0.057568304
0.05749116
0.057513584
0.057604713
0.05766909
0.057698373
0.057705395
0.057706289
0.057706175
0.057706092
0.057706072
0.057706071
0.057706071
0.057706072
0.057706072
0.057706072
0.057706072
0.057706072
0.057706072
0.057706072
0.057706072
0.057706072
0.057706072
0.057706072
0.057706072
0.057706072
0.057706072
0.057706072
0.057706072
0.057706072
0.057706072
0.057706072
0.057706072
0.057706072
0.057706072
0.057706072
0.057706072
0.057706072
0.057706072
0.057706072
0.057706072
0.057706072
0.057706072
0.057706072
0.057706072
0.057706072
0.057706072
0.057706072
0.057706072
0.057706072
0.057706072
0.057706072
0.057706072
0.057706072
0.057706072
0.057706072
0.057706072
0.057706072
0.057706072
0.057706072
0.057706072
0.057706072
0.057706072
0.057706072
0.057706072
0.057706072
0.057706072
0.057706072
0.057706072
0.057467993
0.059396825
0.058565909
0.058986111
0.058603021
0.058554101
0.058360025
0.058227938
0.058124582
0.057931087
0.05771444
0.057499099
0.057403555
0.057433887
0.05755791
0.057650183
0.057693779
0.057704809
0.057706353
0.057706224
0.057706105
0.057706073
0.057706071
0.057706071
0.057706072
0.057706072
0.057706072
0.057706072
0.057706072
0.057706072
0.057706072
0.057706072
0.057706072
0.057706072
0.057706072
0.057706072
0.057706072
0.057706072
0.057706072
0.057706072
0.057706072
0.057706072
0.057706072
0.057706072
0.057706072
0.057706072
0.057706072
0.057706072
0.057706072
0.057706072
0.057706072
0.057706072
0.057706072
0.057706072
0.057706072
0.057706072
0.057706072
0.057706072
0.057706072
0.057706072
0.057706072
0.057706072
0.057706072
0.057706072
0.057706072
0.057706072
0.057706072
0.057706072
0.057706072
0.057706072
0.057706072
0.057706072
0.057706072
0.057706072
0.057706072
0.057706072
0.057706072
0.057706072
0.057706072
0.057706072
0.057732373
0.059621682
0.058529932
0.059101282
0.058621272
0.058601131
0.058363331
0.058223629
0.058101763
0.057907257
0.057661626
0.057418937
0.057300659
0.057336315
0.057497836
0.057624834
0.057687282
0.057703888
0.057706416
0.057706288
0.057706123
0.057706074
0.057706071
0.057706071
0.057706072
0.057706072
0.057706072
0.057706072
0.057706072
0.057706072
0.057706072
0.057706072
0.057706072
0.057706072
0.057706072
0.057706072
0.057706072
0.057706072
0.057706072
0.057706072
0.057706072
0.057706072
0.057706072
0.057706072
0.057706072
0.057706072
0.057706072
0.057706072
0.057706072
0.057706072
0.057706072
0.057706072
0.057706072
0.057706072
0.057706072
0.057706072
0.057706072
0.057706072
0.057706072
0.057706072
0.057706072
0.057706072
0.057706072
0.057706072
0.057706072
0.057706072
0.057706072
0.057706072
0.057706072
0.057706072
0.057706072
0.057706072
0.057706072
0.057706072
0.057706072
0.057706072
0.057706072
0.057706072
0.057706072
0.057706072
0.058290322
0.059917056
0.058466954
0.05925216
0.058639521
0.058668512
0.058360248
0.058218608
0.058073347
0.057873326
0.05760626
0.057326229
0.057180397
0.05721832
0.057422077
0.057591569
0.057678337
0.057702507
0.057706466
0.057706367
0.057706148
0.057706077
0.05770607
0.057706071
0.057706072
0.057706072
0.057706072
0.057706072
0.057706072
0.057706072
0.057706072
0.057706072
0.057706072
0.057706072
0.057706072
0.057706072
0.057706072
0.057706072
0.057706072
0.057706072
0.057706072
0.057706072
0.057706072
0.057706072
0.057706072
0.057706072
0.057706072
0.057706072
0.057706072
0.057706072
0.057706072
0.057706072
0.057706072
0.057706072
0.057706072
0.057706072
0.057706072
0.057706072
0.057706072
0.057706072
0.057706072
0.057706072
0.057706072
0.057706072
0.057706072
0.057706072
0.057706072
0.057706072
0.057706072
0.057706072
0.057706072
0.057706072
0.057706072
0.057706072
0.057706072
0.057706072
0.057706072
0.057706072
0.057706072
0.057706072
0.059318228
0.060322411
0.058366506
0.05945375
0.058658319
0.05875248
0.058368856
0.058213247
0.058042438
0.057830422
0.057541383
0.057219357
0.057040659
0.057076766
0.05732757
0.057548527
0.05766626
0.057700503
0.057706489
0.057706466
0.057706181
0.05770608
0.05770607
0.057706071
0.057706072
0.057706072
0.057706072
0.057706072
0.057706072
0.057706072
0.057706072
0.057706072
0.057706072
0.057706072
0.057706072
0.057706072
0.057706072
0.057706072
0.057706072
0.057706072
0.057706072
0.057706072
0.057706072
0.057706072
0.057706072
0.057706072
0.057706072
0.057706072
0.057706072
0.057706072
0.057706072
0.057706072
0.057706072
0.057706072
0.057706072
0.057706072
0.057706072
0.057706072
0.057706072
0.057706072
0.057706072
0.057706072
0.057706072
0.057706072
0.057706072
0.057706072
0.057706072
0.057706072
0.057706072
0.057706072
0.057706072
0.057706072
0.057706072
0.057706072
0.057706072
0.057706072
0.057706072
0.057706072
0.057706072
0.057706072
0.061065444
0.060829598
0.058250925
0.059696252
0.058700857
0.058856364
0.058389128
0.058206653
0.058003286
0.057783093
0.057463475
0.057094025
0.056878526
0.056907523
0.057210384
0.057493329
0.057650171
0.057697669
0.057706467
0.057706588
0.057706226
0.057706086
0.05770607
0.057706071
0.057706071
0.057706072
0.057706072
0.057706072
0.057706072
0.057706072
0.057706072
0.057706072
0.057706072
0.057706072
0.057706072
0.057706072
0.057706072
0.057706072
0.057706072
0.057706072
0.057706072
0.057706072
0.057706072
0.057706072
0.057706072
0.057706072
0.057706072
0.057706072
0.057706072
0.057706072
0.057706072
0.057706072
0.057706072
0.057706072
0.057706072
0.057706072
0.057706072
0.057706072
0.057706072
0.057706072
0.057706072
0.057706072
0.057706072
0.057706072
0.057706072
0.057706072
0.057706072
0.057706072
0.057706072
0.057706072
0.057706072
0.057706072
0.057706072
0.057706072
0.057706072
0.057706072
0.057706072
0.057706072
0.057706072
0.057706072
0.063519864
0.061414284
0.058149888
0.059970143
0.058787442
0.058978058
0.058426655
0.058195579
0.057955326
0.057730246
0.057367195
0.05694737
0.056688548
0.056705005
0.057065362
0.057422897
0.05762893
0.05769373
0.05770637
0.057706737
0.057706283
0.057706093
0.05770607
0.05770607
0.057706071
0.057706072
0.057706072
0.057706072
0.057706072
0.057706072
0.057706072
0.057706072
0.057706072
0.057706072
0.057706072
0.057706072
0.057706072
0.057706072
0.057706072
0.057706072
0.057706072
0.057706072
0.057706072
0.057706072
0.057706072
0.057706072
0.057706072
0.057706072
0.057706072
0.057706072
0.057706072
0.057706072
0.057706072
0.057706072
0.057706072
0.057706072
0.057706072
0.057706072
0.057706072
0.057706072
0.057706072
0.057706072
0.057706072
0.057706072
0.057706072
0.057706072
0.057706072
0.057706072
0.057706072
0.057706072
0.057706072
0.057706072
0.057706072
0.057706072
0.057706072
0.057706072
0.057706072
0.057706072
0.057706072
0.057706072
0.066615866
0.062163681
0.058048322
0.060325654
0.058917389
0.059139641
0.05848261
0.058186892
0.057898206
0.057666205
0.057251125
0.056773876
0.056464254
0.056461401
0.05688571
0.057333159
0.057601026
0.057688319
0.05770616
0.057706919
0.057706359
0.057706104
0.05770607
0.05770607
0.057706071
0.057706072
0.057706072
0.057706072
0.057706072
0.057706072
0.057706072
0.057706072
0.057706072
0.057706072
0.057706072
0.057706072
0.057706072
0.057706072
0.057706072
0.057706072
0.057706072
0.057706072
0.057706072
0.057706072
0.057706072
0.057706072
0.057706072
0.057706072
0.057706072
0.057706072
0.057706072
0.057706072
0.057706072
0.057706072
0.057706072
0.057706072
0.057706072
0.057706072
0.057706072
0.057706072
0.057706072
0.057706072
0.057706072
0.057706072
0.057706072
0.057706072
0.057706072
0.057706072
0.057706072
0.057706072
0.057706072
0.057706072
0.057706072
0.057706072
0.057706072
0.057706072
0.057706072
0.057706072
0.057706072
0.057706072
0.070744798
0.063178199
0.05792014
0.060813787
0.059104442
0.05936966
0.058560768
0.05818947
0.057833355
0.057590792
0.057112301
0.056567627
0.056197097
0.056166606
0.056662523
0.05721881
0.057564472
0.057680952
0.057705786
0.057707139
0.057706455
0.057706119
0.05770607
0.05770607
0.057706071
0.057706072
0.057706072
0.057706072
0.057706072
0.057706072
0.057706072
0.057706072
0.057706072
0.057706072
0.057706072
0.057706072
0.057706072
0.057706072
0.057706072
0.057706072
0.057706072
0.057706072
0.057706072
0.057706072
0.057706072
0.057706072
0.057706072
0.057706072
0.057706072
0.057706072
0.057706072
0.057706072
0.057706072
0.057706072
0.057706072
0.057706072
0.057706072
0.057706072
0.057706072
0.057706072
0.057706072
0.057706072
0.057706072
0.057706072
0.057706072
0.057706072
0.057706072
0.057706072
0.057706072
0.057706072
0.057706072
0.057706072
0.057706072
0.057706072
0.057706072
0.057706072
0.057706072
0.057706072
0.057706072
0.057706072
0.076273405
0.064497016
0.057856431
0.061463913
0.059444035
0.059688536
0.058689748
0.058209916
0.057765702
0.057510896
0.056953835
0.056327626
0.055877876
0.055807801
0.056384148
0.057072977
0.057516701
0.057671004
0.057705177
0.057707406
0.057706579
0.057706139
0.05770607
0.057706069
0.057706071
0.057706072
0.057706072
0.057706072
0.057706072
0.057706072
0.057706072
0.057706072
0.057706072
0.057706072
0.057706072
0.057706072
0.057706072
0.057706072
0.057706072
0.057706072
0.057706072
0.057706072
0.057706072
0.057706072
0.057706072
0.057706072
0.057706072
0.057706072
0.057706072
0.057706072
0.057706072
0.057706072
0.057706072
0.057706072
0.057706072
0.057706072
0.057706072
0.057706072
0.057706072
0.057706072
0.057706072
0.057706072
0.057706072
0.057706072
0.057706072
0.057706072
0.057706072
0.057706072
0.057706072
0.057706072
0.057706072
0.057706072
0.057706072
0.057706072
0.057706072
0.057706072
0.057706072
0.057706072
0.057706072
0.057706072
0.083261222
0.066153854
0.057847363
0.062284182
0.059956736
0.060084414
0.058872827
0.058245931
0.057697938
0.057430914
0.056779629
0.056051621
0.055493438
0.05536656
0.056034638
0.056886793
0.057454529
0.057657726
0.057704252
0.057707728
0.057706738
0.057706167
0.057706071
0.057706068
0.057706071
0.057706072
0.057706072
0.057706072
0.057706072
0.057706072
0.057706072
0.057706072
0.057706072
0.057706072
0.057706072
0.057706072
0.057706072
0.057706072
0.057706072
0.057706072
0.057706072
0.057706072
0.057706072
0.057706072
0.057706072
0.057706072
0.057706072
0.057706072
0.057706072
0.057706072
0.057706072
0.057706072
0.057706072
0.057706072
0.057706072
0.057706072
0.057706072
0.057706072
0.057706072
0.057706072
0.057706072
0.057706072
0.057706072
0.057706072
0.057706072
0.057706072
0.057706072
0.057706072
0.057706072
0.057706072
0.057706072
0.057706072
0.057706072
0.057706072
0.057706072
0.057706072
0.057706072
0.057706072
0.057706072
0.057706072
0.092091215
0.068352739
0.058048409
0.063391908
0.060828711
0.060635681
0.059149539
0.058277728
0.057613774
0.057323673
0.056560496
0.055705763
0.055009358
0.054810522
0.055590763
0.056648897
0.05737427
0.057640347
0.057702944
0.057708121
0.057706937
0.057706203
0.057706072
0.057706067
0.057706071
0.057706072
0.057706072
0.057706072
0.057706072
0.057706072
0.057706072
0.057706072
0.057706072
0.057706072
0.057706072
0.057706072
0.057706072
0.057706072
0.057706072
0.057706072
0.057706072
0.057706072
0.057706072
0.057706072
0.057706072
0.057706072
0.057706072
0.057706072
0.057706072
0.057706072
0.057706072
0.057706072
0.057706072
0.057706072
0.057706072
0.057706072
0.057706072
0.057706072
0.057706072
0.057706072
0.057706072
0.057706072
0.057706072
0.057706072
0.057706072
0.057706072
0.057706072
0.057706072
0.057706072
0.057706072
0.057706072
0.057706072
0.057706072
0.057706072
0.057706072
0.057706072
0.057706072
0.057706072
0.057706072
0.057706072
0.10292143
0.071790309
0.058172941
0.064998428
0.061987272
0.061135837
0.059423952
0.058212975
0.057455705
0.057128647
0.056209507
0.055190614
0.054349202
0.054085253
0.055021453
0.056346492
0.05727243
0.0576183
0.057701242
0.057708605
0.057707184
0.057706247
0.057706074
0.057706066
0.05770607
0.057706072
0.057706072
0.057706072
0.057706072
0.057706072
0.057706072
0.057706072
0.057706072
0.057706072
0.057706072
0.057706072
0.057706072
0.057706072
0.057706072
0.057706072
0.057706072
0.057706072
0.057706072
0.057706072
0.057706072
0.057706072
0.057706072
0.057706072
0.057706072
0.057706072
0.057706072
0.057706072
0.057706072
0.057706072
0.057706072
0.057706072
0.057706072
0.057706072
0.057706072
0.057706072
0.057706072
0.057706072
0.057706072
0.057706072
0.057706072
0.057706072
0.057706072
0.057706072
0.057706072
0.057706072
0.057706072
0.057706072
0.057706072
0.057706072
0.057706072
0.057706072
0.057706072
0.057706072
0.057706072
0.057706072
0.11901907
0.076686739
0.058531154
0.067204839
0.06378111
0.061875686
0.059629524
0.058225437
0.057161933
0.056750918
0.055585911
0.054343666
0.053406299
0.053119503
0.054297187
0.055970955
0.05714786
0.057591663
0.057699228
0.057709199
0.057707478
0.057706299
0.057706076
0.057706065
0.05770607
0.057706072
0.057706072
0.057706072
0.057706072
0.057706072
0.057706072
0.057706072
0.057706072
0.057706072
0.057706072
0.057706072
0.057706072
0.057706072
0.057706072
0.057706072
0.057706072
0.057706072
0.057706072
0.057706072
0.057706072
0.057706072
0.057706072
0.057706072
0.057706072
0.057706072
0.057706072
0.057706072
0.057706072
0.057706072
0.057706072
0.057706072
0.057706072
0.057706072
0.057706072
0.057706072
0.057706072
0.057706072
0.057706072
0.057706072
0.057706072
0.057706072
0.057706072
0.057706072
0.057706072
0.057706072
0.057706072
0.057706072
0.057706072
0.057706072
0.057706072
0.057706072
0.057706072
0.057706072
0.057706072
0.057706072
0.14120886
0.081057212
0.06113595
0.06922112
0.06716532
0.062873824
0.059820064
0.057905581
0.05647316
0.055930672
0.054507182
0.053033446
0.052075775
0.051851958
0.053405539
0.055527185
0.057005453
0.057562043
0.057697187
0.057709905
0.057707805
0.057706354
0.057706077
0.057706063
0.05770607
0.057706072
0.057706072
0.057706072
0.057706072
0.057706072
0.057706072
0.057706072
0.057706072
0.057706072
0.057706072
0.057706072
0.057706072
0.057706072
0.057706072
0.057706072
0.057706072
0.057706072
0.057706072
0.057706072
0.057706072
0.057706072
0.057706072
0.057706072
0.057706072
0.057706072
0.057706072
0.057706072
0.057706072
0.057706072
0.057706072
0.057706072
0.057706072
0.057706072
0.057706072
0.057706072
0.057706072
0.057706072
0.057706072
0.057706072
0.057706072
0.057706072
0.057706072
0.057706072
0.057706072
0.057706072
0.057706072
0.057706072
0.057706072
0.057706072
0.057706072
0.057706072
0.057706072
0.057706072
0.057706072
0.057706072
0.16474394
0.083772274
0.066310311
0.070855263
0.071426414
0.063237539
0.059668791
0.056734863
0.055219573
0.054533436
0.052857231
0.051180588
0.050261636
0.050238826
0.052359609
0.055042568
0.056859915
0.057533819
0.057695761
0.057710709
0.05770813
0.057706402
0.057706077
0.057706062
0.05770607
0.057706072
0.057706072
0.057706072
0.057706072
0.057706072
0.057706072
0.057706072
0.057706072
0.057706072
0.057706072
0.057706072
0.057706072
0.057706072
0.057706072
0.057706072
0.057706072
0.057706072
0.057706072
0.057706072
0.057706072
0.057706072
0.057706072
0.057706072
0.057706072
0.057706072
0.057706072
0.057706072
0.057706072
0.057706072
0.057706072
0.057706072
0.057706072
0.057706072
0.057706072
0.057706072
0.057706072
0.057706072
0.057706072
0.057706072
0.057706072
0.057706072
0.057706072
0.057706072
0.057706072
0.057706072
0.057706072
0.057706072
0.057706072
0.057706072
0.057706072
0.057706072
0.057706072
0.057706072
0.057706072
0.057706072
0.18677154
0.0825986
0.073714346
0.071175
0.076028501
0.062775903
0.058827236
0.054726064
0.053206646
0.052345473
0.050457023
0.048726967
0.047873143
0.048265645
0.051221033
0.054574317
0.056736865
0.057513769
0.057695813
0.057711558
0.0577084
0.057706431
0.057706075
0.057706061
0.057706069
0.057706072
0.057706072
0.057706072
0.057706072
0.057706072
0.057706072
0.057706072
0.057706072
0.057706072
0.057706072
0.057706072
0.057706072
0.057706072
0.057706072
0.057706072
0.057706072
0.057706072
0.057706072
0.057706072
0.057706072
0.057706072
0.057706072
0.057706072
0.057706072
0.057706072
0.057706072
0.057706072
0.057706072
0.057706072
0.057706072
0.057706072
0.057706072
0.057706072
0.057706072
0.057706072
0.057706072
0.057706072
0.057706072
0.057706072
0.057706072
0.057706072
0.057706072
0.057706072
0.057706072
0.057706072
0.057706072
0.057706072
0.057706072
0.057706072
0.057706072
0.057706072
0.057706072
0.057706072
0.057706072
0.057706072
0.19817436
0.080950588
0.077123648
0.069264267
0.078362371
0.061366845
0.056723861
0.051896103
0.049951783
0.049304823
0.047192504
0.045592296
0.044872736
0.046016143
0.05012736
0.054205902
0.056665899
0.057508369
0.057697898
0.057712337
0.057708556
0.057706428
0.057706071
0.05770606
0.057706069
0.057706072
0.057706072
0.057706072
0.057706072
0.057706072
0.057706072
0.057706072
0.057706072
0.057706072
0.057706072
0.057706072
0.057706072
0.057706072
0.057706072
0.057706072
0.057706072
0.057706072
0.057706072
0.057706072
0.057706072
0.057706072
0.057706072
0.057706072
0.057706072
0.057706072
0.057706072
0.057706072
0.057706072
0.057706072
0.057706072
0.057706072
0.057706072
0.057706072
0.057706072
0.057706072
0.057706072
0.057706072
0.057706072
0.057706072
0.057706072
0.057706072
0.057706072
0.057706072
0.057706072
0.057706072
0.057706072
0.057706072
0.057706072
0.057706072
0.057706072
0.057706072
0.057706072
0.057706072
0.057706072
0.057706072
0.2080356
0.083883584
0.08006628
0.066463196
0.077984217
0.058985125
0.052978016
0.048526193
0.045401955
0.045678238
0.043188767
0.041652577
0.041369362
0.043718426
0.049260963
0.054011774
0.056665317
0.057519835
0.05770178
0.05771289
0.057708554
0.057706391
0.057706064
0.05770606
0.05770607
0.057706072
0.057706072
0.057706072
0.057706072
0.057706072
0.057706072
0.057706072
0.057706072
0.057706072
0.057706072
0.057706072
0.057706072
0.057706072
0.057706072
0.057706072
0.057706072
0.057706072
0.057706072
0.057706072
0.057706072
0.057706072
0.057706072
0.057706072
0.057706072
0.057706072
0.057706072
0.057706072
0.057706072
0.057706072
0.057706072
0.057706072
0.057706072
0.057706072
0.057706072
0.057706072
0.057706072
0.057706072
0.057706072
0.057706072
0.057706072
0.057706072
0.057706072
0.057706072
0.057706072
0.057706072
0.057706072
0.057706072
0.057706072
0.057706072
0.057706072
0.057706072
0.057706072
0.057706072
0.057706072
0.057706072
0.22564456
0.075154126
0.092911848
0.06383115
0.076284002
0.056232717
0.04726978
0.044797881
0.040263369
0.041794999
0.03857072
0.03712536
0.03772116
0.041714912
0.048765703
0.054014894
0.056728927
0.057544183
0.057706399
0.057713099
0.057708397
0.057706331
0.057706058
0.05770606
0.05770607
0.057706072
0.057706072
0.057706072
0.057706072
0.057706072
0.057706072
0.057706072
0.057706072
0.057706072
0.057706072
0.057706072
0.057706072
0.057706072
0.057706072
0.057706072
0.057706072
0.057706072
0.057706072
0.057706072
0.057706072
0.057706072
0.057706072
0.057706072
0.057706072
0.057706072
0.057706072
0.057706072
0.057706072
0.057706072
0.057706072
0.057706072
0.057706072
0.057706072
0.057706072
0.057706072
0.057706072
0.057706072
0.057706072
0.057706072
0.057706072
0.057706072
0.057706072
0.057706072
0.057706072
0.057706072
0.057706072
0.057706072
0.057706072
0.057706072
0.057706072
0.057706072
0.057706072
0.057706072
0.057706072
0.057706072
0.22061307
0.038127988
0.10093823
0.059608256
0.070370241
0.05406765
0.039228672
0.040776313
0.035401348
0.037869611
0.033734627
0.03248393
0.034412281
0.040244904
0.048623093
0.054151679
0.056821494
0.057571472
0.05771028
0.057712989
0.057708159
0.05770627
0.057706054
0.057706061
0.05770607
0.057706072
0.057706072
0.057706072
0.057706072
0.057706072
0.057706072
0.057706072
0.057706072
0.057706072
0.057706072
0.057706072
0.057706072
0.057706072
0.057706072
0.057706072
0.057706072
0.057706072
0.057706072
0.057706072
0.057706072
0.057706072
0.057706072
0.057706072
0.057706072
0.057706072
0.057706072
0.057706072
0.057706072
0.057706072
0.057706072
0.057706072
0.057706072
0.057706072
0.057706072
0.057706072
0.057706072
0.057706072
0.057706072
0.057706072
0.057706072
0.057706072
0.057706072
0.057706072
0.057706072
0.057706072
0.057706072
0.057706072
0.057706072
0.057706072
0.057706072
0.057706072
0.057706072
0.057706072
0.057706072
0.057706072
0.1690846
0.017487656
0.072218885
0.052049264
0.055040168
0.051017422
0.029258768
0.036645145
0.031362692
0.034151248
0.029275918
0.028049497
0.031767456
0.03920786
0.048609218
0.054276553
0.056890776
0.057590089
0.057712517
0.057712787
0.057707967
0.05770623
0.057706052
0.057706062
0.05770607
0.057706072
0.057706072
0.057706072
0.057706072
0.057706072
0.057706072
0.057706072
0.057706072
0.057706072
0.057706072
0.057706072
0.057706072
0.057706072
0.057706072
0.057706072
0.057706072
0.057706072
0.057706072
0.057706072
0.057706072
0.057706072
0.057706072
0.057706072
0.057706072
0.057706072
0.057706072
0.057706072
0.057706072
0.057706072
0.057706072
0.057706072
0.057706072
0.057706072
0.057706072
0.057706072
0.057706072
0.057706072
0.057706072
0.057706072
0.057706072
0.057706072
0.057706072
0.057706072
0.057706072
0.057706072
0.057706072
0.057706072
0.057706072
0.057706072
0.057706072
0.057706072
0.057706072
0.057706072
0.057706072
0.057706072
0.11642131
0.017120323
0.038032665
0.041250721
0.033747226
0.044679077
0.019924847
0.033194093
0.028423225
0.031171103
0.025744332
0.024256598
0.029810144
0.038231686
0.048386838
0.054223033
0.056885905
0.05759036
0.057712864
0.057712868
0.057707969
0.057706228
0.057706051
0.057706062
0.05770607
0.057706072
0.057706072
0.057706072
0.057706072
0.057706072
0.057706072
0.057706072
0.057706072
0.057706072
0.057706072
0.057706072
0.057706072
0.057706072
0.057706072
0.057706072
0.057706072
0.057706072
0.057706072
0.057706072
0.057706072
0.057706072
0.057706072
0.057706072
0.057706072
0.057706072
0.057706072
0.057706072
0.057706072
0.057706072
0.057706072
0.057706072
0.057706072
0.057706072
0.057706072
0.057706072
0.057706072
0.057706072
0.057706072
0.057706072
0.057706072
0.057706072
0.057706072
0.057706072
0.057706072
0.057706072
0.057706072
0.057706072
0.057706072
0.057706072
0.057706072
0.057706072
0.057706072
0.057706072
0.057706072
0.057706072
0.097860573
0.018799391
0.016731422
0.037332145
0.017137035
0.041495672
0.013920654
0.031055764
0.026706881
0.029628077
0.023881375
0.021815148
0.028139314
0.036781631
0.047492261
0.053760305
0.056720078
0.057550836
0.057708433
0.057713436
0.057708394
0.057706321
0.057706056
0.05770606
0.05770607
0.057706072
0.057706072
0.057706072
0.057706072
0.057706072
0.057706072
0.057706072
0.057706072
0.057706072
0.057706072
0.057706072
0.057706072
0.057706072
0.057706072
0.057706072
0.057706072
0.057706072
0.057706072
0.057706072
0.057706072
0.057706072
0.057706072
0.057706072
0.057706072
0.057706072
0.057706072
0.057706072
0.057706072
0.057706072
0.057706072
0.057706072
0.057706072
0.057706072
0.057706072
0.057706072
0.057706072
0.057706072
0.057706072
0.057706072
0.057706072
0.057706072
0.057706072
0.057706072
0.057706072
0.057706072
0.057706072
0.057706072
0.057706072
0.057706072
0.057706072
0.057706072
0.057706072
0.057706072
0.057706072
0.057706072
0.051431341
0.051724012
0.053894293
0.052806602
0.054176034
0.054165761
0.054670345
0.054939479
0.0554406
0.056277869
0.056807741
0.057217234
0.057436315
0.057594359
0.057679276
0.057702248
0.057706564
0.057706364
0.057706153
0.057706078
0.057706071
0.057706071
0.057706072
0.057706072
0.057706072
0.057706072
0.057706072
0.057706072
0.057706072
0.057706072
0.057706072
0.057706072
0.057706072
0.057706072