/*--------------------------------*- C++ -*----------------------------------*\
| =========                 |                                                 |
| \\      /  F ield         | OpenFOAM: The Open Source CFD Toolbox           |
|  \\    /   O peration     | Version:  2406                                  |
|   \\  /    A nd           | Website:  www.openfoam.com                      |
|    \\/     M anipulation  |                                                 |
\*---------------------------------------------------------------------------*/
FoamFile
{
    version     2.0;
    format      ascii;
    arch        "LSB;label=32;scalar=64";
    class       volScalarField;
    location    "0.0001";
    object      nut;
}
// * * * * * * * * * * * * * * * * * * * * * * * * * * * * * * * * * * * * * //

dimensions      [0 2 -1 0 0 0 0];

internalField   nonuniform List<scalar> 
16000
(
1.0213738e-05
3.0500691e-05
6.5196928e-05
0.00014400261
0.00010875082
0.00012368239
0.00013604338
0.00016047352
0.0001719689
0.00013668408
0.00014546259
0.00015812302
0.00019429758
0.00034145664
0.00074218727
0.00099992304
0.00099992273
0.00099992281
0.00099992289
0.0009999229
0.0009999229
0.00099992291
0.00099992292
0.00099992296
0.00099992303
0.00099992316
0.0009999233
0.00099992346
0.00099992361
0.00099992373
0.00099992384
0.00099992392
0.00099992399
0.00099992404
0.00099992408
0.00099992412
0.00099992414
0.00099992416
0.00099992418
0.00099992419
0.0009999242
0.00099992421
0.00099992422
0.00099992422
0.00099992423
0.00099992423
0.00099992423
0.00099992424
0.00099992424
0.00099992424
0.00099992424
0.00099992424
0.00099992424
0.00099992424
0.00099992424
0.00099992424
0.00099992424
0.00099992424
0.00099992424
0.00099992424
0.00099992424
0.00099992424
0.00099992424
0.00099992424
0.00099992424
0.00099992424
0.00099992424
0.00099992424
0.00099992424
0.00099992424
0.00099992424
0.00099992424
0.00099992424
0.00099992424
0.00099992424
0.00099992424
0.00099992424
0.00099992424
0.00099992424
0.00099992426
9.9043308e-06
6.0887506e-05
0.00019622996
0.00018454486
0.00011578546
0.00014249838
0.00011753637
0.00016325704
0.00013659511
0.00011719275
0.00012372116
8.8971968e-05
7.7102157e-05
0.00011358859
0.00021883333
0.00075803634
0.00099992318
0.00099992275
0.00099992284
0.00099992289
0.0009999229
0.0009999229
0.00099992291
0.00099992294
0.00099992301
0.00099992312
0.00099992327
0.00099992342
0.00099992357
0.0009999237
0.00099992381
0.0009999239
0.00099992397
0.00099992403
0.00099992407
0.00099992411
0.00099992414
0.00099992416
0.00099992418
0.00099992419
0.0009999242
0.00099992421
0.00099992422
0.00099992422
0.00099992423
0.00099992423
0.00099992423
0.00099992423
0.00099992424
0.00099992424
0.00099992424
0.00099992424
0.00099992424
0.00099992424
0.00099992424
0.00099992424
0.00099992424
0.00099992424
0.00099992424
0.00099992424
0.00099992424
0.00099992424
0.00099992424
0.00099992424
0.00099992424
0.00099992424
0.00099992424
0.00099992424
0.00099992424
0.00099992424
0.00099992424
0.00099992424
0.00099992424
0.00099992424
0.00099992424
0.00099992424
0.00099992424
0.00099992424
0.00099992424
0.00099992428
9.0648892e-06
0.00012503408
5.2336397e-05
7.7641528e-05
0.000152796
0.00021167936
0.00010424665
0.00015887997
0.00010356355
0.00010109107
0.0001117376
5.8909174e-05
4.6269793e-05
6.2902982e-05
0.00011269576
0.00032857087
0.00099992413
0.00099992272
0.00099992277
0.00099992287
0.0009999229
0.0009999229
0.00099992291
0.00099992293
0.00099992299
0.0009999231
0.00099992323
0.00099992339
0.00099992354
0.00099992367
0.00099992379
0.00099992388
0.00099992396
0.00099992402
0.00099992406
0.0009999241
0.00099992413
0.00099992415
0.00099992417
0.00099992419
0.0009999242
0.00099992421
0.00099992421
0.00099992422
0.00099992423
0.00099992423
0.00099992423
0.00099992423
0.00099992424
0.00099992424
0.00099992424
0.00099992424
0.00099992424
0.00099992424
0.00099992424
0.00099992424
0.00099992424
0.00099992424
0.00099992424
0.00099992424
0.00099992424
0.00099992424
0.00099992424
0.00099992424
0.00099992424
0.00099992424
0.00099992424
0.00099992424
0.00099992424
0.00099992424
0.00099992424
0.00099992424
0.00099992424
0.00099992424
0.00099992424
0.00099992424
0.00099992424
0.00099992424
0.00099992424
0.0009999243
5.976418e-06
9.1482536e-05
3.051719e-05
5.1662582e-05
0.00014065943
0.00016317115
0.00010475668
0.00013031052
8.3820203e-05
8.479814e-05
0.00010723478
4.4987252e-05
3.2569817e-05
4.1261703e-05
6.994559e-05
0.00018446854
0.00099992585
0.0009999227
0.0009999227
0.00099992285
0.0009999229
0.0009999229
0.00099992291
0.00099992293
0.00099992298
0.00099992307
0.0009999232
0.00099992336
0.00099992351
0.00099992365
0.00099992377
0.00099992386
0.00099992394
0.00099992401
0.00099992405
0.00099992409
0.00099992412
0.00099992415
0.00099992417
0.00099992418
0.0009999242
0.00099992421
0.00099992421
0.00099992422
0.00099992422
0.00099992423
0.00099992423
0.00099992423
0.00099992424
0.00099992424
0.00099992424
0.00099992424
0.00099992424
0.00099992424
0.00099992424
0.00099992424
0.00099992424
0.00099992424
0.00099992424
0.00099992424
0.00099992424
0.00099992424
0.00099992424
0.00099992424
0.00099992424
0.00099992424
0.00099992424
0.00099992424
0.00099992424
0.00099992424
0.00099992424
0.00099992424
0.00099992424
0.00099992424
0.00099992424
0.00099992424
0.00099992424
0.00099992424
0.00099992424
0.00099992432
4.5616344e-06
3.9251087e-05
2.0858267e-05
3.4438944e-05
0.00011775754
0.00011872944
8.6892589e-05
0.00011113396
7.205506e-05
7.1013251e-05
9.7889639e-05
3.7120466e-05
2.5070156e-05
2.9822866e-05
4.8015996e-05
0.00012017094
0.00063663433
0.00099992274
0.0009999226
0.00099992281
0.0009999229
0.0009999229
0.00099992291
0.00099992292
0.00099992297
0.00099992305
0.00099992318
0.00099992333
0.00099992348
0.00099992362
0.00099992375
0.00099992385
0.00099992393
0.00099992399
0.00099992405
0.00099992409
0.00099992412
0.00099992414
0.00099992416
0.00099992418
0.00099992419
0.0009999242
0.00099992421
0.00099992422
0.00099992422
0.00099992423
0.00099992423
0.00099992423
0.00099992424
0.00099992424
0.00099992424
0.00099992424
0.00099992424
0.00099992424
0.00099992424
0.00099992424
0.00099992424
0.00099992424
0.00099992424
0.00099992424
0.00099992424
0.00099992424
0.00099992424
0.00099992424
0.00099992424
0.00099992424
0.00099992424
0.00099992424
0.00099992424
0.00099992424
0.00099992424
0.00099992424
0.00099992424
0.00099992424
0.00099992424
0.00099992424
0.00099992424
0.00099992424
0.00099992424
0.00099992434
3.6920811e-06
2.1087882e-05
1.4801359e-05
2.6887331e-05
8.5829934e-05
7.9122846e-05
8.6569291e-05
8.0641272e-05
6.9766049e-05
5.8445934e-05
7.9316569e-05
3.2449358e-05
2.0360332e-05
2.2886762e-05
3.5103686e-05
8.383439e-05
0.0003959336
0.0009999229
0.00099992251
0.00099992276
0.00099992289
0.0009999229
0.00099992291
0.00099992292
0.00099992296
0.00099992304
0.00099992316
0.00099992331
0.00099992346
0.0009999236
0.00099992373
0.00099992383
0.00099992392
0.00099992398
0.00099992404
0.00099992408
0.00099992411
0.00099992414
0.00099992416
0.00099992418
0.00099992419
0.0009999242
0.00099992421
0.00099992422
0.00099992422
0.00099992423
0.00099992423
0.00099992423
0.00099992424
0.00099992424
0.00099992424
0.00099992424
0.00099992424
0.00099992424
0.00099992424
0.00099992424
0.00099992424
0.00099992424
0.00099992424
0.00099992424
0.00099992424
0.00099992424
0.00099992424
0.00099992424
0.00099992424
0.00099992424
0.00099992424
0.00099992424
0.00099992424
0.00099992424
0.00099992424
0.00099992424
0.00099992424
0.00099992424
0.00099992424
0.00099992424
0.00099992424
0.00099992424
0.00099992424
0.00099992437
3.461774e-06
1.3487105e-05
1.0857382e-05
2.1808477e-05
6.3605128e-05
6.0620385e-05
8.0753885e-05
5.6882917e-05
7.3745383e-05
4.7987765e-05
5.9236052e-05
2.935598e-05
1.7135823e-05
1.8295321e-05
2.6828336e-05
6.1387882e-05
0.00026233609
0.00099992325
0.0009999224
0.00099992269
0.00099992288
0.0009999229
0.00099992291
0.00099992292
0.00099992295
0.00099992302
0.00099992313
0.00099992327
0.00099992342
0.00099992357
0.0009999237
0.00099992381
0.0009999239
0.00099992397
0.00099992403
0.00099992407
0.00099992411
0.00099992414
0.00099992416
0.00099992418
0.00099992419
0.0009999242
0.00099992421
0.00099992422
0.00099992422
0.00099992423
0.00099992423
0.00099992423
0.00099992423
0.00099992424
0.00099992424
0.00099992424
0.00099992424
0.00099992424
0.00099992424
0.00099992424
0.00099992424
0.00099992424
0.00099992424
0.00099992424
0.00099992424
0.00099992424
0.00099992424
0.00099992424
0.00099992424
0.00099992424
0.00099992424
0.00099992424
0.00099992424
0.00099992424
0.00099992424
0.00099992424
0.00099992424
0.00099992424
0.00099992424
0.00099992424
0.00099992424
0.00099992424
0.00099992424
0.00099992439
3.5136092e-06
9.2477491e-06
8.585311e-06
1.8032191e-05
5.0359102e-05
5.1649131e-05
5.348643e-05
3.6856938e-05
8.0387594e-05
3.8109724e-05
4.3750299e-05
2.7048032e-05
1.4778987e-05
1.5075581e-05
2.1197388e-05
4.661897e-05
0.00018251505
0.0009999239
0.00099992229
0.00099992261
0.00099992287
0.0009999229
0.00099992291
0.00099992291
0.00099992294
0.000999923
0.00099992311
0.00099992325
0.0009999234
0.00099992355
0.00099992368
0.00099992379
0.00099992389
0.00099992396
0.00099992402
0.00099992407
0.0009999241
0.00099992413
0.00099992415
0.00099992417
0.00099992419
0.0009999242
0.00099992421
0.00099992422
0.00099992422
0.00099992423
0.00099992423
0.00099992423
0.00099992423
0.00099992424
0.00099992424
0.00099992424
0.00099992424
0.00099992424
0.00099992424
0.00099992424
0.00099992424
0.00099992424
0.00099992424
0.00099992424
0.00099992424
0.00099992424
0.00099992424
0.00099992424
0.00099992424
0.00099992424
0.00099992424
0.00099992424
0.00099992424
0.00099992424
0.00099992424
0.00099992424
0.00099992424
0.00099992424
0.00099992424
0.00099992424
0.00099992424
0.00099992424
0.00099992424
0.00099992442
3.8946926e-06
6.7133215e-06
7.6040934e-06
1.5207166e-05
3.8782027e-05
4.370013e-05
3.3305286e-05
2.5533988e-05
8.1149749e-05
3.0900268e-05
3.3911189e-05
2.5130226e-05
1.306121e-05
1.268918e-05
1.7188298e-05
3.643364e-05
0.00013195967
0.00089847884
0.00099992218
0.00099992252
0.00099992285
0.0009999229
0.00099992291
0.00099992291
0.00099992293
0.00099992299
0.00099992309
0.00099992323
0.00099992338
0.00099992353
0.00099992367
0.00099992378
0.00099992388
0.00099992395
0.00099992401
0.00099992406
0.0009999241
0.00099992413
0.00099992415
0.00099992417
0.00099992419
0.0009999242
0.00099992421
0.00099992421
0.00099992422
0.00099992422
0.00099992423
0.00099992423
0.00099992423
0.00099992424
0.00099992424
0.00099992424
0.00099992424
0.00099992424
0.00099992424
0.00099992424
0.00099992424
0.00099992424
0.00099992424
0.00099992424
0.00099992424
0.00099992424
0.00099992424
0.00099992424
0.00099992424
0.00099992424
0.00099992424
0.00099992424
0.00099992424
0.00099992424
0.00099992424
0.00099992424
0.00099992424
0.00099992424
0.00099992424
0.00099992424
0.00099992424
0.00099992424
0.00099992424
0.00099992445
4.9740143e-06
5.0219479e-06
6.6867049e-06
1.297265e-05
3.0558021e-05
3.5639748e-05
2.1963046e-05
1.9279692e-05
7.296268e-05
2.6863077e-05
2.6159057e-05
2.3953099e-05
1.1666447e-05
1.084451e-05
1.4215387e-05
2.913316e-05
9.8405499e-05
0.00062474338
0.00099992208
0.00099992242
0.00099992282
0.0009999229
0.00099992291
0.00099992291
0.00099992293
0.00099992298
0.00099992308
0.00099992321
0.00099992336
0.00099992352
0.00099992365
0.00099992377
0.00099992387
0.00099992394
0.00099992401
0.00099992406
0.0009999241
0.00099992413
0.00099992415
0.00099992417
0.00099992418
0.0009999242
0.00099992421
0.00099992421
0.00099992422
0.00099992422
0.00099992423
0.00099992423
0.00099992423
0.00099992424
0.00099992424
0.00099992424
0.00099992424
0.00099992424
0.00099992424
0.00099992424
0.00099992424
0.00099992424
0.00099992424
0.00099992424
0.00099992424
0.00099992424
0.00099992424
0.00099992424
0.00099992424
0.00099992424
0.00099992424
0.00099992424
0.00099992424
0.00099992424
0.00099992424
0.00099992424
0.00099992424
0.00099992424
0.00099992424
0.00099992424
0.00099992424
0.00099992424
0.00099992424
0.00099992448
5.0073106e-06
3.8082893e-06
4.8399151e-06
1.4087335e-05
2.3958819e-05
2.9492972e-05
1.6007019e-05
1.4961822e-05
6.0178869e-05
2.4673127e-05
2.071466e-05
2.3421881e-05
1.0533886e-05
9.3849674e-06
1.1940967e-05
2.3723414e-05
7.5239236e-05
0.00045002975
0.00099992199
0.0009999223
0.0009999228
0.0009999229
0.00099992291
0.00099992291
0.00099992293
0.00099992298
0.00099992307
0.0009999232
0.00099992335
0.0009999235
0.00099992363
0.00099992375
0.00099992385
0.00099992393
0.000999924
0.00099992405
0.00099992409
0.00099992412
0.00099992415
0.00099992417
0.00099992418
0.0009999242
0.00099992421
0.00099992421
0.00099992422
0.00099992422
0.00099992423
0.00099992423
0.00099992423
0.00099992424
0.00099992424
0.00099992424
0.00099992424
0.00099992424
0.00099992424
0.00099992424
0.00099992424
0.00099992424
0.00099992424
0.00099992424
0.00099992424
0.00099992424
0.00099992424
0.00099992424
0.00099992424
0.00099992424
0.00099992424
0.00099992424
0.00099992424
0.00099992424
0.00099992424
0.00099992424
0.00099992424
0.00099992424
0.00099992424
0.00099992424
0.00099992424
0.00099992424
0.00099992424
0.00099992451
3.6715196e-06
2.9960388e-06
3.160238e-06
1.6708583e-05
1.9261618e-05
2.853395e-05
1.2200306e-05
1.1902028e-05
5.0098527e-05
2.4760914e-05
1.6800082e-05
2.3643298e-05
9.5982804e-06
8.1921424e-06
1.0155125e-05
1.9600543e-05
5.8700054e-05
0.00033341106
0.00099992192
0.00099992217
0.00099992276
0.0009999229
0.00099992291
0.00099992291
0.00099992293
0.00099992297
0.00099992305
0.00099992318
0.00099992332
0.00099992348
0.00099992362
0.00099992374
0.00099992384
0.00099992393
0.00099992399
0.00099992404
0.00099992409
0.00099992412
0.00099992414
0.00099992416
0.00099992418
0.00099992419
0.0009999242
0.00099992421
0.00099992422
0.00099992422
0.00099992423
0.00099992423
0.00099992423
0.00099992424
0.00099992424
0.00099992424
0.00099992424
0.00099992424
0.00099992424
0.00099992424
0.00099992424
0.00099992424
0.00099992424
0.00099992424
0.00099992424
0.00099992424
0.00099992424
0.00099992424
0.00099992424
0.00099992424
0.00099992424
0.00099992424
0.00099992424
0.00099992424
0.00099992424
0.00099992424
0.00099992424
0.00099992424
0.00099992424
0.00099992424
0.00099992424
0.00099992424
0.00099992424
0.00099992455
2.9570371e-06
2.4032533e-06
2.4772666e-06
2.0189819e-05
1.6094337e-05
3.0013336e-05
9.6570755e-06
9.624359e-06
4.272869e-05
2.5441414e-05
1.4014633e-05
2.4280378e-05
8.8381163e-06
7.2063787e-06
8.7233149e-06
1.6380547e-05
4.6548987e-05
0.00025266536
0.00099992188
0.00099992203
0.00099992271
0.00099992289
0.00099992291
0.00099992291
0.00099992292
0.00099992296
0.00099992304
0.00099992316
0.00099992331
0.00099992347
0.00099992361
0.00099992373
0.00099992384
0.00099992392
0.00099992399
0.00099992404
0.00099992408
0.00099992412
0.00099992414
0.00099992416
0.00099992418
0.00099992419
0.0009999242
0.00099992421
0.00099992422
0.00099992422
0.00099992423
0.00099992423
0.00099992423
0.00099992424
0.00099992424
0.00099992424
0.00099992424
0.00099992424
0.00099992424
0.00099992424
0.00099992424
0.00099992424
0.00099992424
0.00099992424
0.00099992424
0.00099992424
0.00099992424
0.00099992424
0.00099992424
0.00099992424
0.00099992424
0.00099992424
0.00099992424
0.00099992424
0.00099992424
0.00099992424
0.00099992424
0.00099992424
0.00099992424
0.00099992424
0.00099992424
0.00099992424
0.00099992424
0.00099992458
2.2177851e-06
1.9695563e-06
1.9606465e-06
2.0574345e-05
1.3423661e-05
2.8089157e-05
7.8462758e-06
8.5146649e-06
3.6248521e-05
2.5844388e-05
1.1974449e-05
2.5066239e-05
8.2150493e-06
6.3843019e-06
7.5542935e-06
1.3815887e-05
3.7401611e-05
0.00019500351
0.0009999219
0.00099992188
0.00099992266
0.00099992288
0.00099992291
0.00099992291
0.00099992292
0.00099992296
0.00099992304
0.00099992316
0.0009999233
0.00099992346
0.0009999236
0.00099992373
0.00099992383
0.00099992391
0.00099992398
0.00099992404
0.00099992408
0.00099992411
0.00099992414
0.00099992416
0.00099992418
0.00099992419
0.0009999242
0.00099992421
0.00099992422
0.00099992422
0.00099992423
0.00099992423
0.00099992423
0.00099992424
0.00099992424
0.00099992424
0.00099992424
0.00099992424
0.00099992424
0.00099992424
0.00099992424
0.00099992424
0.00099992424
0.00099992424
0.00099992424
0.00099992424
0.00099992424
0.00099992424
0.00099992424
0.00099992424
0.00099992424
0.00099992424
0.00099992424
0.00099992424
0.00099992424
0.00099992424
0.00099992424
0.00099992424
0.00099992424
0.00099992424
0.00099992424
0.00099992424
0.00099992425
0.00099992462
1.6455099e-06
1.5695036e-06
1.5581107e-06
2.0913155e-05
1.1009969e-05
2.6080845e-05
6.476199e-06
7.8177472e-06
3.0503412e-05
2.6675379e-05
1.0440948e-05
2.552018e-05
7.6915311e-06
5.6917691e-06
6.5867219e-06
1.1742927e-05
3.0382091e-05
0.00015279869
0.00099992198
0.00099992171
0.0009999226
0.00099992288
0.00099992291
0.00099992291
0.00099992292
0.00099992296
0.00099992303
0.00099992314
0.00099992329
0.00099992344
0.00099992359
0.00099992371
0.00099992382
0.00099992391
0.00099992398
0.00099992403
0.00099992408
0.00099992411
0.00099992414
0.00099992416
0.00099992418
0.00099992419
0.0009999242
0.00099992421
0.00099992422
0.00099992422
0.00099992423
0.00099992423
0.00099992423
0.00099992424
0.00099992424
0.00099992424
0.00099992424
0.00099992424
0.00099992424
0.00099992424
0.00099992424
0.00099992424
0.00099992424
0.00099992424
0.00099992424
0.00099992424
0.00099992424
0.00099992424
0.00099992424
0.00099992424
0.00099992424
0.00099992424
0.00099992424
0.00099992424
0.00099992424
0.00099992424
0.00099992424
0.00099992424
0.00099992424
0.00099992424
0.00099992424
0.00099992424
0.00099992425
0.00099992467
1.2836142e-06
1.2543747e-06
1.2328734e-06
2.2996007e-05
8.9725846e-06
2.460037e-05
5.3920515e-06
7.1707836e-06
2.5900539e-05
2.8198962e-05
9.2504545e-06
2.4904126e-05
7.2226204e-06
5.0968748e-06
5.7745567e-06
1.0047166e-05
2.4921278e-05
0.00012135553
0.00099992216
0.00099992152
0.00099992252
0.00099992287
0.00099992291
0.00099992291
0.00099992292
0.00099992295
0.00099992302
0.00099992313
0.00099992328
0.00099992343
0.00099992358
0.00099992371
0.00099992382
0.00099992391
0.00099992398
0.00099992403
0.00099992408
0.00099992411
0.00099992414
0.00099992416
0.00099992418
0.00099992419
0.0009999242
0.00099992421
0.00099992422
0.00099992422
0.00099992423
0.00099992423
0.00099992423
0.00099992424
0.00099992424
0.00099992424
0.00099992424
0.00099992424
0.00099992424
0.00099992424
0.00099992424
0.00099992424
0.00099992424
0.00099992424
0.00099992424
0.00099992424
0.00099992424
0.00099992424
0.00099992424
0.00099992424
0.00099992424
0.00099992424
0.00099992424
0.00099992424
0.00099992424
0.00099992424
0.00099992424
0.00099992424
0.00099992424
0.00099992424
0.00099992424
0.00099992424
0.00099992425
0.00099992471
9.9275061e-07
9.7660425e-07
9.7784802e-07
2.0889243e-05
7.2622547e-06
1.6829771e-05
4.5756475e-06
6.3947039e-06
2.2231518e-05
2.9140504e-05
8.2538985e-06
2.2930376e-05
6.7619845e-06
4.5674207e-06
5.0798906e-06
8.6425353e-06
2.0636851e-05
9.7702514e-05
0.00099992246
0.00099992132
0.00099992244
0.00099992286
0.00099992291
0.00099992291
0.00099992292
0.00099992295
0.00099992302
0.00099992313
0.00099992328
0.00099992343
0.00099992358
0.00099992371
0.00099992382
0.00099992391
0.00099992397
0.00099992403
0.00099992407
0.00099992411
0.00099992414
0.00099992416
0.00099992418
0.00099992419
0.0009999242
0.00099992421
0.00099992422
0.00099992422
0.00099992423
0.00099992423
0.00099992423
0.00099992424
0.00099992424
0.00099992424
0.00099992424
0.00099992424
0.00099992424
0.00099992424
0.00099992424
0.00099992424
0.00099992424
0.00099992424
0.00099992424
0.00099992424
0.00099992424
0.00099992424
0.00099992424
0.00099992424
0.00099992424
0.00099992424
0.00099992424
0.00099992424
0.00099992424
0.00099992424
0.00099992424
0.00099992424
0.00099992424
0.00099992424
0.00099992424
0.00099992424
0.00099992425
0.00099992476
7.8855531e-07
7.533534e-07
7.673364e-07
1.8981137e-05
5.8249316e-06
1.4026524e-05
3.8972024e-06
5.9211808e-06
1.943565e-05
2.662243e-05
7.330228e-06
2.0288319e-05
6.3021712e-06
4.0864928e-06
4.4768148e-06
7.4691314e-06
1.729756e-05
7.9884407e-05
0.0009999229
0.0009999211
0.00099992234
0.00099992284
0.00099992291
0.00099992291
0.00099992292
0.00099992295
0.00099992302
0.00099992313
0.00099992328
0.00099992342
0.00099992357
0.0009999237
0.00099992381
0.0009999239
0.00099992397
0.00099992403
0.00099992408
0.00099992411
0.00099992414
0.00099992416
0.00099992418
0.00099992419
0.0009999242
0.00099992421
0.00099992422
0.00099992422
0.00099992423
0.00099992423
0.00099992423
0.00099992424
0.00099992424
0.00099992424
0.00099992424
0.00099992424
0.00099992424
0.00099992424
0.00099992424
0.00099992424
0.00099992424
0.00099992424
0.00099992424
0.00099992424
0.00099992424
0.00099992424
0.00099992424
0.00099992424
0.00099992424
0.00099992424
0.00099992424
0.00099992424
0.00099992424
0.00099992424
0.00099992424
0.00099992424
0.00099992424
0.00099992424
0.00099992424
0.00099992424
0.00099992425
0.00099992481
5.1373031e-07
5.7085166e-07
5.9243217e-07
1.2422221e-05
4.3110559e-06
9.3573787e-06
3.3667798e-06
5.0644779e-06
1.7235801e-05
2.1207348e-05
6.5056806e-06
1.7676866e-05
5.8836828e-06
3.6632654e-06
3.9622127e-06
6.5007381e-06
1.4698812e-05
6.6586896e-05
0.00080431456
0.00099992087
0.00099992224
0.00099992283
0.00099992291
0.00099992291
0.00099992292
0.00099992295
0.00099992302
0.00099992312
0.00099992327
0.00099992342
0.00099992357
0.0009999237
0.00099992381
0.0009999239
0.00099992398
0.00099992403
0.00099992408
0.00099992411
0.00099992414
0.00099992416
0.00099992418
0.00099992419
0.0009999242
0.00099992421
0.00099992422
0.00099992422
0.00099992423
0.00099992423
0.00099992423
0.00099992424
0.00099992424
0.00099992424
0.00099992424
0.00099992424
0.00099992424
0.00099992424
0.00099992424
0.00099992424
0.00099992424
0.00099992424
0.00099992424
0.00099992424
0.00099992424
0.00099992424
0.00099992424
0.00099992424
0.00099992424
0.00099992424
0.00099992424
0.00099992424
0.00099992424
0.00099992424
0.00099992424
0.00099992424
0.00099992424
0.00099992424
0.00099992424
0.00099992424
0.00099992425
0.00099992487
3.541849e-07
4.5474254e-07
4.2952153e-07
4.8599722e-06
3.1740307e-06
6.917184e-06
2.9385353e-06
5.0537469e-06
1.4094024e-05
1.6096734e-05
5.8466383e-06
1.5517239e-05
5.8948217e-06
3.3148756e-06
3.5470428e-06
5.737901e-06
1.2775895e-05
5.6967751e-05
0.00065665216
0.00099992062
0.00099992215
0.00099992282
0.00099992291
0.00099992291
0.00099992292
0.00099992295
0.00099992301
0.00099992313
0.00099992327
0.00099992343
0.00099992358
0.00099992371
0.00099992382
0.00099992391
0.00099992398
0.00099992403
0.00099992408
0.00099992411
0.00099992414
0.00099992416
0.00099992418
0.00099992419
0.0009999242
0.00099992421
0.00099992422
0.00099992422
0.00099992423
0.00099992423
0.00099992423
0.00099992424
0.00099992424
0.00099992424
0.00099992424
0.00099992424
0.00099992424
0.00099992424
0.00099992424
0.00099992424
0.00099992424
0.00099992424
0.00099992424
0.00099992424
0.00099992424
0.00099992424
0.00099992424
0.00099992424
0.00099992424
0.00099992424
0.00099992424
0.00099992424
0.00099992424
0.00099992424
0.00099992424
0.00099992424
0.00099992424
0.00099992424
0.00099992424
0.00099992424
0.00099992425
0.00099992493
3.1623003e-07
3.8613774e-07
3.0792174e-07
3.6614263e-06
2.6096242e-06
1.2860598e-05
2.4126915e-06
5.2384771e-06
1.1894394e-05
1.1885054e-05
5.443217e-06
1.4253554e-05
5.6373561e-06
3.0487107e-06
3.2317168e-06
5.183099e-06
1.1470092e-05
5.0562736e-05
0.00057024718
0.0009999204
0.00099992206
0.00099992281
0.00099992291
0.00099992291
0.00099992292
0.00099992295
0.00099992302
0.00099992313
0.00099992328
0.00099992344
0.00099992358
0.00099992371
0.00099992382
0.00099992391
0.00099992398
0.00099992404
0.00099992408
0.00099992411
0.00099992414
0.00099992416
0.00099992418
0.00099992419
0.0009999242
0.00099992421
0.00099992422
0.00099992422
0.00099992423
0.00099992423
0.00099992423
0.00099992424
0.00099992424
0.00099992424
0.00099992424
0.00099992424
0.00099992424
0.00099992424
0.00099992424
0.00099992424
0.00099992424
0.00099992424
0.00099992424
0.00099992424
0.00099992424
0.00099992424
0.00099992424
0.00099992424
0.00099992424
0.00099992424
0.00099992424
0.00099992424
0.00099992424
0.00099992424
0.00099992424
0.00099992424
0.00099992424
0.00099992424
0.00099992424
0.00099992424
0.00099992425
0.00099992499
3.2459547e-07
3.402218e-07
2.3474814e-07
3.6732734e-06
2.1944424e-06
1.5504713e-05
2.0765798e-06
5.3007933e-06
1.1238908e-05
9.5163529e-06
5.3344181e-06
1.3116112e-05
4.956862e-06
2.8501848e-06
3.0041888e-06
4.8188287e-06
1.0667947e-05
4.7247347e-05
0.00053808379
0.00099992021
0.00099992201
0.0009999228
0.00099992291
0.00099992291
0.00099992292
0.00099992295
0.00099992303
0.00099992315
0.00099992329
0.00099992345
0.00099992359
0.00099992372
0.00099992383
0.00099992392
0.00099992399
0.00099992404
0.00099992409
0.00099992412
0.00099992414
0.00099992416
0.00099992418
0.00099992419
0.0009999242
0.00099992421
0.00099992422
0.00099992422
0.00099992423
0.00099992423
0.00099992423
0.00099992424
0.00099992424
0.00099992424
0.00099992424
0.00099992424
0.00099992424
0.00099992424
0.00099992424
0.00099992424
0.00099992424
0.00099992424
0.00099992424
0.00099992424
0.00099992424
0.00099992424
0.00099992424
0.00099992424
0.00099992424
0.00099992424
0.00099992424
0.00099992424
0.00099992424
0.00099992424
0.00099992424
0.00099992424
0.00099992424
0.00099992424
0.00099992424
0.00099992424
0.00099992425
0.00099992505
6.0793077e-07
2.9427836e-07
2.431685e-07
0.00013507625
1.9541086e-06
8.4107167e-06
2.176136e-06
4.2508474e-06
1.0055136e-05
8.4738897e-06
6.6662343e-06
1.5150131e-05
4.4439902e-06
2.7008442e-06
2.8507883e-06
4.6301042e-06
1.0412263e-05
4.7120973e-05
0.00056587617
0.0009999201
0.00099992201
0.00099992281
0.00099992291
0.00099992291
0.00099992292
0.00099992296
0.00099992304
0.00099992316
0.00099992331
0.00099992347
0.00099992362
0.00099992374
0.00099992384
0.00099992393
0.00099992399
0.00099992405
0.00099992409
0.00099992412
0.00099992415
0.00099992417
0.00099992418
0.00099992419
0.0009999242
0.00099992421
0.00099992422
0.00099992422
0.00099992423
0.00099992423
0.00099992423
0.00099992424
0.00099992424
0.00099992424
0.00099992424
0.00099992424
0.00099992424
0.00099992424
0.00099992424
0.00099992424
0.00099992424
0.00099992424
0.00099992424
0.00099992424
0.00099992424
0.00099992424
0.00099992424
0.00099992424
0.00099992424
0.00099992424
0.00099992424
0.00099992424
0.00099992424
0.00099992424
0.00099992424
0.00099992424
0.00099992424
0.00099992424
0.00099992424
0.00099992424
0.00099992425
0.00099992511
6.6891844e-07
2.6015871e-07
2.1216132e-07
1.7596626e-05
2.0482125e-06
3.6022839e-06
2.752394e-06
2.6628695e-06
8.5014679e-06
8.190887e-06
6.3991207e-06
1.2787098e-05
4.0679916e-06
2.5711895e-06
2.7641667e-06
4.6136256e-06
1.0778018e-05
5.0610075e-05
0.00068021747
0.00099992009
0.00099992206
0.00099992282
0.00099992292
0.00099992291
0.00099992292
0.00099992296
0.00099992305
0.00099992317
0.00099992333
0.00099992348
0.00099992363
0.00099992375
0.00099992385
0.00099992393
0.000999924
0.00099992405
0.00099992409
0.00099992412
0.00099992415
0.00099992417
0.00099992418
0.0009999242
0.00099992421
0.00099992421
0.00099992422
0.00099992422
0.00099992423
0.00099992423
0.00099992423
0.00099992424
0.00099992424
0.00099992424
0.00099992424
0.00099992424
0.00099992424
0.00099992424
0.00099992424
0.00099992424
0.00099992424
0.00099992424
0.00099992424
0.00099992424
0.00099992424
0.00099992424
0.00099992424
0.00099992424
0.00099992424
0.00099992424
0.00099992424
0.00099992424
0.00099992424
0.00099992424
0.00099992424
0.00099992424
0.00099992424
0.00099992424
0.00099992424
0.00099992424
0.00099992425
0.00099992517
4.2285272e-07
2.5485309e-07
1.4002558e-07
7.2439192e-06
2.1245209e-06
1.7230829e-06
2.5653133e-06
2.0016977e-06
5.5358109e-06
8.8830123e-06
4.72966e-06
9.0282514e-06
3.7651006e-06
2.4542854e-06
2.7420738e-06
4.767627e-06
1.1909758e-05
5.8556247e-05
0.00096483909
0.00099992019
0.00099992217
0.00099992284
0.00099992292
0.00099992291
0.00099992293
0.00099992297
0.00099992306
0.00099992319
0.00099992335
0.00099992351
0.00099992365
0.00099992377
0.00099992386
0.00099992394
0.00099992401
0.00099992405
0.00099992409
0.00099992412
0.00099992415
0.00099992417
0.00099992418
0.0009999242
0.00099992421
0.00099992421
0.00099992422
0.00099992422
0.00099992423
0.00099992423
0.00099992423
0.00099992424
0.00099992424
0.00099992424
0.00099992424
0.00099992424
0.00099992424
0.00099992424
0.00099992424
0.00099992424
0.00099992424
0.00099992424
0.00099992424
0.00099992424
0.00099992424
0.00099992424
0.00099992424
0.00099992424
0.00099992424
0.00099992424
0.00099992424
0.00099992424
0.00099992424
0.00099992424
0.00099992424
0.00099992424
0.00099992424
0.00099992424
0.00099992424
0.00099992424
0.00099992425
0.00099992523
3.2742467e-07
2.245365e-07
1.8802511e-07
2.1997379e-06
1.9061481e-06
1.4083292e-06
1.5743772e-06
1.7950401e-06
5.0585957e-06
9.1751363e-06
4.3818453e-06
7.6630973e-06
3.4429143e-06
2.3818498e-06
2.7839641e-06
5.0806765e-06
1.3797857e-05
7.2141341e-05
0.00099992071
0.00099992039
0.0009999223
0.00099992286
0.00099992292
0.00099992291
0.00099992293
0.00099992298
0.00099992307
0.00099992321
0.00099992336
0.00099992351
0.00099992365
0.00099992377
0.00099992387
0.00099992394
0.00099992401
0.00099992406
0.00099992409
0.00099992413
0.00099992415
0.00099992417
0.00099992418
0.0009999242
0.00099992421
0.00099992421
0.00099992422
0.00099992422
0.00099992423
0.00099992423
0.00099992423
0.00099992424
0.00099992424
0.00099992424
0.00099992424
0.00099992424
0.00099992424
0.00099992424
0.00099992424
0.00099992424
0.00099992424
0.00099992424
0.00099992424
0.00099992424
0.00099992424
0.00099992424
0.00099992424
0.00099992424
0.00099992424
0.00099992424
0.00099992424
0.00099992424
0.00099992424
0.00099992424
0.00099992424
0.00099992424
0.00099992424
0.00099992424
0.00099992424
0.00099992424
0.00099992425
0.00099992529
2.909261e-07
2.6602702e-07
0.00061278625
1.3450215e-06
1.6225408e-06
2.7345462e-06
1.6792818e-06
1.8185376e-06