/*--------------------------------*- C++ -*----------------------------------*\
| =========                 |                                                 |
| \\      /  F ield         | OpenFOAM: The Open Source CFD Toolbox           |
|  \\    /   O peration     | Version:  2406                                  |
|   \\  /    A nd           | Website:  www.openfoam.com                      |
|    \\/     M anipulation  |                                                 |
\*---------------------------------------------------------------------------*/
FoamFile
{
    version     2.0;
    format      ascii;
    arch        "LSB;label=32;scalar=64";
    class       volScalarField;
    location    "0.0001";
    object      omega;
}
// * * * * * * * * * * * * * * * * * * * * * * * * * * * * * * * * * * * * * //

dimensions      [0 0 -1 0 0 0 0];

internalField   nonuniform List<scalar> 
16000
(
1073.0651
10.096223
10.017348
10.003758
10.005014
10.003955
10.002836
10.004427
10.004047
10.004296
10.002658
10.001019
10.000027
9.9997161
9.9998013
9.999872
9.9998752
9.9998731
9.9998712
9.999871
9.999871
9.999871
9.9998709
9.9998705
9.9998697
9.9998685
9.999867
9.9998654
9.999864
9.9998627
9.9998617
9.9998608
9.9998601
9.9998596
9.9998592
9.9998589
9.9998586
9.9998584
9.9998582
9.9998581
9.999858
9.9998579
9.9998579
9.9998578
9.9998578
9.9998577
9.9998577
9.9998577
9.9998577
9.9998576
9.9998576
9.9998576
9.9998576
9.9998576
9.9998576
9.9998576
9.9998576
9.9998576
9.9998576
9.9998576
9.9998576
9.9998576
9.9998576
9.9998576
9.9998576
9.9998576
9.9998576
9.9998576
9.9998576
9.9998576
9.9998576
9.9998576
9.9998576
9.9998576
9.9998576
9.9998576
9.9998576
9.9998576
9.9998576
9.9998576
1106.7081
10.135713
10.00628
10.004379
10.006706
10.002994
10.004518
10.005656
10.006323
10.005695
10.007152
10.006423
10.004088
10.000595
9.999769
9.9998131
9.9998672
9.9998747
9.9998724
9.9998712
9.999871
9.999871
9.9998709
9.9998706
9.9998699
9.9998688
9.9998674
9.9998658
9.9998643
9.999863
9.9998619
9.999861
9.9998603
9.9998597
9.9998593
9.9998589
9.9998587
9.9998584
9.9998583
9.9998581
9.999858
9.9998579
9.9998579
9.9998578
9.9998578
9.9998577
9.9998577
9.9998577
9.9998577
9.9998577
9.9998576
9.9998576
9.9998576
9.9998576
9.9998576
9.9998576
9.9998576
9.9998576
9.9998576
9.9998576
9.9998576
9.9998576
9.9998576
9.9998576
9.9998576
9.9998576
9.9998576
9.9998576
9.9998576
9.9998576
9.9998576
9.9998576
9.9998576
9.9998576
9.9998576
9.9998576
9.9998576
9.9998576
9.9998576
9.9998576
1139.0879
10.290813
10.007309
10.009443
10.007754
10.002629
10.005688
10.006385
10.010499
10.007883
10.010816
10.011918
10.010579
10.004096
10.000327
9.9997756
9.9998515
9.9998758
9.9998738
9.9998716
9.999871
9.999871
9.9998709
9.9998707
9.9998701
9.9998691
9.9998677
9.9998661
9.9998646
9.9998633
9.9998621
9.9998612
9.9998605
9.9998599
9.9998594
9.999859
9.9998587
9.9998585
9.9998583
9.9998582
9.9998581
9.999858
9.9998579
9.9998578
9.9998578
9.9998577
9.9998577
9.9998577
9.9998577
9.9998577
9.9998576
9.9998576
9.9998576
9.9998576
9.9998576
9.9998576
9.9998576
9.9998576
9.9998576
9.9998576
9.9998576
9.9998576
9.9998576
9.9998576
9.9998576
9.9998576
9.9998576
9.9998576
9.9998576
9.9998576
9.9998576
9.9998576
9.9998576
9.9998576
9.9998576
9.9998576
9.9998576
9.9998576
9.9998576
9.9998576
1169.8445
10.984553
10.004935
10.016718
10.009595
10.004281
10.006412
10.007739
10.015079
10.010075
10.01382
10.01696
10.016058
10.008645
10.002117
9.9998461
9.9998293
9.9998772
9.9998756
9.9998722
9.9998711
9.999871
9.9998709
9.9998708
9.9998702
9.9998693
9.999868
9.9998665
9.9998649
9.9998636
9.9998624
9.9998614
9.9998606
9.99986
9.9998595
9.9998591
9.9998588
9.9998585
9.9998583
9.9998582
9.9998581
9.999858
9.9998579
9.9998578
9.9998578
9.9998578
9.9998577
9.9998577
9.9998577
9.9998577
9.9998576
9.9998576
9.9998576
9.9998576
9.9998576
9.9998576
9.9998576
9.9998576
9.9998576
9.9998576
9.9998576
9.9998576
9.9998576
9.9998576
9.9998576
9.9998576
9.9998576
9.9998576
9.9998576
9.9998576
9.9998576
9.9998576
9.9998576
9.9998576
9.9998576
9.9998576
9.9998576
9.9998576
9.9998576
9.9998576
1198.9095
12.444673
10.004593
10.028416
10.009123
10.008055
10.008064
10.009481
10.02041
10.012062
10.016438
10.022116
10.021912
10.013402
10.00485
10.00016
9.9998006
9.9998775
9.9998777
9.999873
9.9998712
9.999871
9.9998709
9.9998708
9.9998704
9.9998695
9.9998682
9.9998667
9.9998652
9.9998638
9.9998626
9.9998616
9.9998607
9.9998601
9.9998596
9.9998592
9.9998588
9.9998586
9.9998584
9.9998582
9.9998581
9.999858
9.9998579
9.9998578
9.9998578
9.9998578
9.9998577
9.9998577
9.9998577
9.9998577
9.9998576
9.9998576
9.9998576
9.9998576
9.9998576
9.9998576
9.9998576
9.9998576
9.9998576
9.9998576
9.9998576
9.9998576
9.9998576
9.9998576
9.9998576
9.9998576
9.9998576
9.9998576
9.9998576
9.9998576
9.9998576
9.9998576
9.9998576
9.9998576
9.9998576
9.9998576
9.9998576
9.9998576
9.9998576
9.9998576
1226.0078
14.314624
10.004062
10.041323
10.010826
10.011763
10.009925
10.01232
10.026342
10.014587
10.019253
10.027324
10.028276
10.018257
10.00798
10.000926
9.9997722
9.999876
9.99988
9.9998741
9.9998713
9.999871
9.999871
9.9998708
9.9998705
9.9998697
9.9998685
9.999867
9.9998654
9.999864
9.9998628
9.9998617
9.9998609
9.9998602
9.9998596
9.9998592
9.9998589
9.9998586
9.9998584
9.9998582
9.9998581
9.999858
9.9998579
9.9998579
9.9998578
9.9998578
9.9998577
9.9998577
9.9998577
9.9998577
9.9998576
9.9998576
9.9998576
9.9998576
9.9998576
9.9998576
9.9998576
9.9998576
9.9998576
9.9998576
9.9998576
9.9998576
9.9998576
9.9998576
9.9998576
9.9998576
9.9998576
9.9998576
9.9998576
9.9998576
9.9998576
9.9998576
9.9998576
9.9998576
9.9998576
9.9998576
9.9998576
9.9998576
9.9998576
9.9998576
1251.227
16.59317
10.003262
10.056921
10.014081
10.015393
10.012093
10.014871
10.03201
10.017367
10.021931
10.032837
10.035132
10.023538
10.011604
10.00234
9.99976
9.9998722
9.9998825
9.9998755
9.9998715
9.999871
9.999871
9.9998709
9.9998706
9.9998699
9.9998688
9.9998673
9.9998658
9.9998643
9.999863
9.9998619
9.9998611
9.9998603
9.9998598
9.9998593
9.999859
9.9998587
9.9998585
9.9998583
9.9998581
9.999858
9.9998579
9.9998579
9.9998578
9.9998578
9.9998577
9.9998577
9.9998577
9.9998577
9.9998576
9.9998576
9.9998576
9.9998576
9.9998576
9.9998576
9.9998576
9.9998576
9.9998576
9.9998576
9.9998576
9.9998576
9.9998576
9.9998576
9.9998576
9.9998576
9.9998576
9.9998576
9.9998576
9.9998576
9.9998576
9.9998576
9.9998576
9.9998576
9.9998576
9.9998576
9.9998576
9.9998576
9.9998576
9.9998576
1274.5186
19.577919
9.9959157
10.074599
10.019055
10.01899
10.014443
10.017293
10.036682
10.020881
10.024269
10.039144
10.042488
10.029425
10.015739
10.004061
9.9997925
9.9998656
9.9998852
9.9998772
9.9998718
9.999871
9.999871
9.9998709
9.9998706
9.99987
9.999869
9.9998676
9.999866
9.9998645
9.9998632
9.9998621
9.9998612
9.9998604
9.9998598
9.9998594
9.999859
9.9998587
9.9998585
9.9998583
9.9998582
9.999858
9.999858
9.9998579
9.9998578
9.9998578
9.9998577
9.9998577
9.9998577
9.9998577
9.9998577
9.9998576
9.9998576
9.9998576
9.9998576
9.9998576
9.9998576
9.9998576
9.9998576
9.9998576
9.9998576
9.9998576
9.9998576
9.9998576
9.9998576
9.9998576
9.9998576
9.9998576
9.9998576
9.9998576
9.9998576
9.9998576
9.9998576
9.9998576
9.9998576
9.9998576
9.9998576
9.9998576
9.9998576
9.9998576
1295.9776
23.208918
9.9820266
10.094885
10.025421
10.022327
10.017223
10.020063
10.041258
10.0248
10.027845
10.04554
10.050208
10.035911
10.02035
10.006044
9.9999158
9.9998564
9.999888
9.9998793
9.9998721
9.999871
9.9998709
9.9998709
9.9998707
9.9998701
9.9998691
9.9998678
9.9998662
9.9998647
9.9998634
9.9998622
9.9998613
9.9998605
9.9998599
9.9998594
9.999859
9.9998587
9.9998585
9.9998583
9.9998582
9.9998581
9.999858
9.9998579
9.9998578
9.9998578
9.9998577
9.9998577
9.9998577
9.9998577
9.9998577
9.9998576
9.9998576
9.9998576
9.9998576
9.9998576
9.9998576
9.9998576
9.9998576
9.9998576
9.9998576
9.9998576
9.9998576
9.9998576
9.9998576
9.9998576
9.9998576
9.9998576
9.9998576
9.9998576
9.9998576
9.9998576
9.9998576
9.9998576
9.9998576
9.9998576
9.9998576
9.9998576
9.9998576
9.9998576
1315.6358
27.560099
9.962147
10.11919
10.031783
10.025962
10.021276
10.023046
10.045385
10.029893
10.031402
10.052233
10.05853
10.043054
10.025389
10.008344
10.000199
9.9998457
9.9998908
9.9998815
9.9998726
9.999871
9.9998709
9.9998709
9.9998707
9.9998702
9.9998692
9.9998679
9.9998664
9.9998649
9.9998635
9.9998623
9.9998614
9.9998606
9.99986
9.9998595
9.9998591
9.9998588
9.9998585
9.9998583
9.9998582
9.9998581
9.999858
9.9998579
9.9998578
9.9998578
9.9998577
9.9998577
9.9998577
9.9998577
9.9998577
9.9998576
9.9998576
9.9998576
9.9998576
9.9998576
9.9998576
9.9998576
9.9998576
9.9998576
9.9998576
9.9998576
9.9998576
9.9998576
9.9998576
9.9998576
9.9998576
9.9998576
9.9998576
9.9998576
9.9998576
9.9998576
9.9998576
9.9998576
9.9998576
9.9998576
9.9998576
9.9998576
9.9998576
9.9998577
1333.5094
33.022618
9.9477924
10.140013
10.03785
10.028575
10.028392
10.026833
10.049369
10.035787
10.035325
10.058538
10.067521
10.050892
10.030893
10.010992
10.000743
9.9998355
9.9998934
9.9998841
9.9998733
9.9998711
9.9998709
9.9998709
9.9998708
9.9998703
9.9998693
9.999868
9.9998665
9.999865
9.9998637
9.9998625
9.9998615
9.9998607
9.9998601
9.9998595
9.9998591
9.9998588
9.9998586
9.9998584
9.9998582
9.9998581
9.999858
9.9998579
9.9998578
9.9998578
9.9998577
9.9998577
9.9998577
9.9998577
9.9998577
9.9998576
9.9998576
9.9998576
9.9998576
9.9998576
9.9998576
9.9998576
9.9998576
9.9998576
9.9998576
9.9998576
9.9998576
9.9998576
9.9998576
9.9998576
9.9998576
9.9998576
9.9998576
9.9998576
9.9998576
9.9998576
9.9998576
9.9998576
9.9998576
9.9998576
9.9998576
9.9998576
9.9998576
9.9998577
1349.6559
40.079591
9.9630882
10.15889
10.043606
10.031937
10.036786
10.032211
10.053347
10.042038
10.039982
10.064064
10.077447
10.059516
10.037058
10.014026
10.001577
9.9998296
9.9998957
9.9998869
9.999874
9.9998711
9.9998709
9.9998709
9.9998708
9.9998704
9.9998695
9.9998683
9.9998668
9.9998653
9.9998638
9.9998626
9.9998616
9.9998608
9.9998601
9.9998596
9.9998592
9.9998588
9.9998586
9.9998584
9.9998582
9.9998581
9.999858
9.9998579
9.9998578
9.9998578
9.9998578
9.9998577
9.9998577
9.9998577
9.9998577
9.9998576
9.9998576
9.9998576
9.9998576
9.9998576
9.9998576
9.9998576
9.9998576
9.9998576
9.9998576
9.9998576
9.9998576
9.9998576
9.9998576
9.9998576
9.9998576
9.9998576
9.9998576
9.9998576
9.9998576
9.9998576
9.9998576
9.9998576
9.9998576
9.9998576
9.9998576
9.9998576
9.9998576
9.9998577
1364.5339
48.69263
9.9720437
10.181578
10.049306
10.034409
10.047119
10.03916
10.057518
10.048458
10.045557
10.069515
10.088019
10.06901
10.043955
10.017486
10.002577
9.9998345
9.9998975
9.9998901
9.999875
9.9998712
9.9998709
9.9998709
9.9998708
9.9998704
9.9998696
9.9998684
9.9998669
9.9998654
9.9998639
9.9998627
9.9998617
9.9998608
9.9998601
9.9998596
9.9998592
9.9998589
9.9998586
9.9998584
9.9998582
9.9998581
9.999858
9.9998579
9.9998578
9.9998578
9.9998578
9.9998577
9.9998577
9.9998577
9.9998577
9.9998576
9.9998576
9.9998576
9.9998576
9.9998576
9.9998576
9.9998576
9.9998576
9.9998576
9.9998576
9.9998576
9.9998576
9.9998576
9.9998576
9.9998576
9.9998576
9.9998576
9.9998576
9.9998576
9.9998576
9.9998576
9.9998576
9.9998576
9.9998576
9.9998576
9.9998576
9.9998576
9.9998576
9.9998577
1378.636
58.776221
9.9688131
10.211446
10.055983
10.036999
10.060188
10.046969
10.061876
10.055095
10.052161
10.075082
10.099228
10.079463
10.051668
10.021419
10.003768
9.9998601
9.9998986
9.9998935
9.9998761
9.9998713
9.9998709
9.9998709
9.9998708
9.9998705
9.9998697
9.9998685
9.999867
9.9998654
9.999864
9.9998627
9.9998618
9.9998609
9.9998602
9.9998597
9.9998592
9.9998589
9.9998586
9.9998584
9.9998582
9.9998581
9.999858
9.9998579
9.9998579
9.9998578
9.9998578
9.9998577
9.9998577
9.9998577
9.9998577
9.9998576
9.9998576
9.9998576
9.9998576
9.9998576
9.9998576
9.9998576
9.9998576
9.9998576
9.9998576
9.9998576
9.9998576
9.9998576
9.9998576
9.9998576
9.9998576
9.9998576
9.9998576
9.9998576
9.9998576
9.9998576
9.9998576
9.9998576
9.9998576
9.9998576
9.9998576
9.9998576
9.9998576
9.9998577
1391.8698
71.142871
9.9569775
10.245944
10.063885
10.03762
10.076731
10.054372
10.066679
10.061591
10.059755
10.080909
10.111114
10.090968
10.060281
10.025873
10.005185
9.9999216
9.9998988
9.9998973
9.9998775
9.9998715
9.9998709
9.9998709
9.9998708
9.9998705
9.9998697
9.9998686
9.9998672
9.9998656
9.9998642
9.9998629
9.9998618
9.9998609
9.9998602
9.9998597
9.9998592
9.9998589
9.9998586
9.9998584
9.9998582
9.9998581
9.999858
9.9998579
9.9998579
9.9998578
9.9998578
9.9998577
9.9998577
9.9998577
9.9998577
9.9998576
9.9998576
9.9998576
9.9998576
9.9998576
9.9998576
9.9998576
9.9998576
9.9998576
9.9998576
9.9998576
9.9998576
9.9998576
9.9998576
9.9998576
9.9998576
9.9998576
9.9998576
9.9998576
9.9998576
9.9998576
9.9998576
9.9998576
9.9998576
9.9998576
9.9998576
9.9998576
9.9998576
9.9998577
1404.1934
86.670227
9.9410221
10.283067
10.073266
10.035031
10.097382
10.061759
10.071934
10.06764
10.068335
10.08731
10.123822
10.10367
10.069898
10.030886
10.006858
10.000041
9.9998981
9.9999015
9.999879
9.9998717
9.9998709
9.9998709
9.9998709
9.9998705
9.9998698
9.9998687
9.9998672
9.9998657
9.9998642
9.9998629
9.9998618
9.999861
9.9998603
9.9998597
9.9998593
9.9998589
9.9998586
9.9998584
9.9998583
9.9998581
9.999858
9.9998579
9.9998579
9.9998578
9.9998578
9.9998577
9.9998577
9.9998577
9.9998577
9.9998576
9.9998576
9.9998576
9.9998576
9.9998576
9.9998576
9.9998576
9.9998576
9.9998576
9.9998576
9.9998576
9.9998576
9.9998576
9.9998576
9.9998576
9.9998576
9.9998576
9.9998576
9.9998576
9.9998576
9.9998576
9.9998576
9.9998576
9.9998576
9.9998576
9.9998576
9.9998576
9.9998576
9.9998577
1415.9239
105.7544
9.9183839
10.339224
10.082913
10.040269
10.121027
10.070505
10.077977
10.073791
10.078363
10.094891
10.137751
10.117892
10.080668
10.036494
10.00881
10.000248
9.9998965
9.999906
9.9998809
9.9998719
9.9998708
9.9998709
9.9998709
9.9998706
9.9998699
9.9998687
9.9998673
9.9998657
9.9998642
9.9998629
9.9998618
9.999861
9.9998603
9.9998597
9.9998593
9.9998589
9.9998586
9.9998584
9.9998582
9.9998581
9.999858
9.9998579
9.9998579
9.9998578
9.9998578
9.9998577
9.9998577
9.9998577
9.9998577
9.9998576
9.9998576
9.9998576
9.9998576
9.9998576
9.9998576
9.9998576
9.9998576
9.9998576
9.9998576
9.9998576
9.9998576
9.9998576
9.9998576
9.9998576
9.9998576
9.9998576
9.9998576
9.9998576
9.9998576
9.9998576
9.9998576
9.9998576
9.9998576
9.9998576
9.9998576
9.9998576
9.9998576
9.9998577
1426.7252
129.33277
9.8961319
10.392246
10.096156
10.033593
10.149761
10.077762
10.08584
10.081888
10.090982
10.104097
10.15359
10.134101
10.092791
10.042766
10.011042
10.000576
9.9998944
9.9999109
9.9998829
9.9998722
9.9998708
9.9998709
9.9998709
9.9998706
9.9998699
9.9998687
9.9998673
9.9998658
9.9998643
9.999863
9.9998619
9.999861
9.9998603
9.9998597
9.9998593
9.9998589
9.9998586
9.9998584
9.9998583
9.9998581
9.999858
9.9998579
9.9998579
9.9998578
9.9998578
9.9998577
9.9998577
9.9998577
9.9998577
9.9998576
9.9998576
9.9998576
9.9998576
9.9998576
9.9998576
9.9998576
9.9998576
9.9998576
9.9998576
9.9998576
9.9998576
9.9998576
9.9998576
9.9998576
9.9998576
9.9998576
9.9998576
9.9998576
9.9998576
9.9998576
9.9998576
9.9998576
9.9998576
9.9998576
9.9998576
9.9998576
9.9998576
9.9998577
1436.0034
159.09264
9.8685002
10.477118
10.116819
10.048919
10.181421
10.089518
10.094885
10.093687
10.106479
10.114719
10.171409
10.152388
10.106251
10.049702
10.013503
10.001033
9.9998927
9.9999162
9.999885
9.9998724
9.9998708
9.9998709
9.9998709
9.9998706
9.9998698
9.9998688
9.9998674
9.9998658
9.9998643
9.999863
9.9998619
9.999861
9.9998603
9.9998597
9.9998593
9.9998589
9.9998586
9.9998584
9.9998583
9.9998581
9.999858
9.9998579
9.9998579
9.9998578
9.9998578
9.9998577
9.9998577
9.9998577
9.9998577
9.9998576
9.9998576
9.9998576
9.9998576
9.9998576
9.9998576
9.9998576
9.9998576
9.9998576
9.9998576
9.9998576
9.9998576
9.9998576
9.9998576
9.9998576
9.9998576
9.9998576
9.9998576
9.9998576
9.9998576
9.9998576
9.9998576
9.9998576
9.9998576
9.9998576
9.9998576
9.9998576
9.9998576
9.9998578
1441.5324
201.19716
9.8287434
10.561096
10.132297
10.044147
10.222403
10.090381
10.11086
10.106397
10.12218
10.125082
10.190079
10.17174
10.120396
10.056919
10.016043
10.001513
9.9998921
9.9999216
9.9998871
9.9998727
9.9998708
9.9998709
9.9998709
9.9998705
9.9998699
9.9998688
9.9998673
9.9998658
9.9998643
9.999863
9.9998619
9.999861
9.9998603
9.9998597
9.9998593
9.9998589
9.9998586
9.9998584
9.9998582
9.9998581
9.999858
9.9998579
9.9998579
9.9998578
9.9998578
9.9998577
9.9998577
9.9998577
9.9998577
9.9998576
9.9998576
9.9998576
9.9998576
9.9998576
9.9998576
9.9998576
9.9998576
9.9998576
9.9998576
9.9998576
9.9998576
9.9998576
9.9998576
9.9998576
9.9998576
9.9998576
9.9998576
9.9998576
9.9998576
9.9998576
9.9998576
9.9998576
9.9998576
9.9998576
9.9998576
9.9998576
9.9998576
9.9998578
1446.5663
252.45715
9.7953149
10.602414
10.156231
9.9592941
10.292708
10.08949
10.131593
10.110051
10.132933
10.132411
10.208859
10.1901
10.133948
10.063676
10.018336
10.001937
9.9998932
9.9999266
9.9998889
9.9998729
9.9998708
9.9998709
9.9998709
9.9998706
9.9998699
9.9998687
9.9998672
9.9998657
9.9998642
9.9998629
9.9998618
9.9998609
9.9998602
9.9998597
9.9998592
9.9998589
9.9998586
9.9998584
9.9998582
9.9998581
9.999858
9.9998579
9.9998578
9.9998578
9.9998578
9.9998577
9.9998577
9.9998577
9.9998577
9.9998576
9.9998576
9.9998576
9.9998576
9.9998576
9.9998576
9.9998576
9.9998576
9.9998576
9.9998576
9.9998576
9.9998576
9.9998576
9.9998576
9.9998576
9.9998576
9.9998576
9.9998576
9.9998576
9.9998576
9.9998576
9.9998576
9.9998576
9.9998576
9.9998576
9.9998576
9.9998576
9.9998576
9.9998578
1449.3765
300.33191
9.7395847
10.653208
10.195153
9.9632327
10.354803
10.068935
10.150738
10.114425
10.134275
10.139555
10.226456
10.206164
10.145548
10.06901
10.019929
10.002207
9.9998968
9.9999306
9.9998899
9.999873
9.9998708
9.9998709
9.9998708
9.9998705
9.9998697
9.9998685
9.9998671
9.9998656
9.9998641
9.9998628
9.9998617
9.9998609
9.9998602
9.9998596
9.9998592
9.9998588
9.9998586
9.9998584
9.9998582
9.9998581
9.999858
9.9998579
9.9998578
9.9998578
9.9998578
9.9998577
9.9998577
9.9998577
9.9998577
9.9998576
9.9998576
9.9998576
9.9998576
9.9998576
9.9998576
9.9998576
9.9998576
9.9998576
9.9998576
9.9998576
9.9998576
9.9998576
9.9998576
9.9998576
9.9998576
9.9998576
9.9998576
9.9998576
9.9998576
9.9998576
9.9998576
9.9998576
9.9998576
9.9998576
9.9998576
9.9998576
9.9998576
9.9998578
1450.5161
340.16665
9.6479516
10.688471
10.218148
9.9762997
10.384147
10.04854
10.172917
10.122046
10.11397
10.164217
10.241626
10.219125
10.153879
10.07192
10.020338
10.002226
9.9999035
9.9999327
9.9998899
9.9998729
9.9998707
9.9998709
9.9998708
9.9998705
9.9998696
9.9998684
9.9998669
9.9998653
9.9998639
9.9998626
9.9998616
9.9998608
9.9998601
9.9998596
9.9998592
9.9998588
9.9998586
9.9998584
9.9998582
9.9998581
9.999858
9.9998579
9.9998578
9.9998578
9.9998578
9.9998577
9.9998577
9.9998577
9.9998577
9.9998576
9.9998576
9.9998576
9.9998576
9.9998576
9.9998576
9.9998576
9.9998576
9.9998576
9.9998576
9.9998576
9.9998576
9.9998576
9.9998576
9.9998576
9.9998576
9.9998576
9.9998576
9.9998576
9.9998576
9.9998576
9.9998576
9.9998576
9.9998576
9.9998576
9.9998576
9.9998576
9.9998576
9.9998578
1453.9016
360.50593
9.6220366
10.849394
10.224821
10.032842
10.360472
10.07648
10.180558
10.127056
10.127622
10.189744
10.254661
10.228539
10.157694
10.071629
10.019285
10.001955
9.999913
9.9999326
9.9998887
9.9998726
9.9998707
9.9998709
9.9998708
9.9998704
9.9998696
9.9998683
9.9998668
9.9998652
9.9998638
9.9998625
9.9998615
9.9998607
9.9998601
9.9998595
9.9998591
9.9998588
9.9998586
9.9998584
9.9998582
9.9998581
9.999858
9.9998579
9.9998578
9.9998578
9.9998578
9.9998577
9.9998577
9.9998577
9.9998577
9.9998576
9.9998576
9.9998576
9.9998576
9.9998576
9.9998576
9.9998576
9.9998576
9.9998576
9.9998576
9.9998576
9.9998576
9.9998576
9.9998576
9.9998576
9.9998576
9.9998576
9.9998576
9.9998576
9.9998576
9.9998576
9.9998576
9.9998576
9.9998576
9.9998576
9.9998576
9.9998576
9.9998576
9.9998578
1438.4367
385.7225
9.7011041
10.969433
10.260465
10.199626
10.406826
10.213091
10.207735
10.13408
10.173993
10.210767
10.268689
10.233642
10.156373
10.068039
10.016942
10.001454
9.9999247
9.9999298
9.9998863
9.9998722
9.9998707
9.9998709
9.9998708
9.9998703
9.9998694
9.9998681
9.9998665
9.999865
9.9998636
9.9998624
9.9998614
9.9998606
9.99986
9.9998595
9.9998591
9.9998588
9.9998585
9.9998583
9.9998582
9.9998581
9.999858
9.9998579
9.9998578
9.9998578
9.9998577
9.9998577
9.9998577
9.9998577
9.9998577
9.9998576
9.9998576
9.9998576
9.9998576
9.9998576
9.9998576
9.9998576
9.9998576
9.9998576
9.9998576
9.9998576
9.9998576
9.9998576
9.9998576
9.9998576
9.9998576
9.9998576
9.9998576
9.9998576
9.9998576
9.9998576
9.9998576
9.9998576
9.9998576
9.9998576
9.9998576
9.9998576
9.9998576
9.9998579
1387.7307
426.59276
9.5595889
10.987063
10.3192
10.332733
10.50783
10.294544
10.234474
10.150765
10.194141
10.228189
10.280536
10.233145
10.150025
10.062041
10.013917
10.000862
9.9999358
9.9999251
9.9998833
9.9998718
9.9998707
9.9998709
9.9998707
9.9998702
9.9998693
9.999868
9.9998664
9.9998649
9.9998635
9.9998623
9.9998614
9.9998606
9.99986
9.9998595
9.9998591
9.9998588
9.9998585
9.9998583
9.9998582
9.9998581
9.999858
9.9998579
9.9998578
9.9998578
9.9998577
9.9998577
9.9998577
9.9998577
9.9998577
9.9998576
9.9998576
9.9998576
9.9998576
9.9998576
9.9998576
9.9998576
9.9998576
9.9998576
9.9998576
9.9998576
9.9998576
9.9998576
9.9998576
9.9998576
9.9998576
9.9998576
9.9998576
9.9998576
9.9998576
9.9998576
9.9998576
9.9998576
9.9998576
9.9998576
9.9998576
9.9998576
9.9998576
9.9998579
1322.9946
414.28182
8.573585
10.854034
10.437286
10.286629
10.443387
10.301297
10.261261
10.170195
10.205943
10.241593
10.288329
10.228762
10.140901
10.055456
10.011085
10.000404
9.9999427
9.9999197
9.9998806
9.9998715
9.9998708
9.9998709
9.9998707
9.9998702
9.9998692
9.9998679
9.9998662
9.9998647
9.9998634
9.9998622
9.9998613
9.9998605
9.9998599
9.9998594
9.9998591
9.9998588
9.9998585
9.9998583
9.9998582
9.9998581
9.999858
9.9998579
9.9998578
9.9998578
9.9998578
9.9998577
9.9998577
9.9998577
9.9998577
9.9998576
9.9998576
9.9998576
9.9998576
9.9998576
9.9998576
9.9998576
9.9998576
9.9998576
9.9998576
9.9998576
9.9998576
9.9998576
9.9998576
9.9998576
9.9998576
9.9998576
9.9998576
9.9998576
9.9998576
9.9998576
9.9998576
9.9998576
9.9998576
9.9998576
9.9998576
9.9998576
9.9998576
9.9998579
1270.3721
286.49499
9.5376715
10.813597
10.554447
10.39086
10.336596
10.277043
10.270888
10.184635
10.208702
10.244646
10.293802
10.223277
10.133067
10.050458
10.009229
10.000193
9.999945
9.9999153
9.9998789
9.9998713
9.9998708
9.9998709
9.9998707
9.9998701
9.9998692
9.9998678
9.9998663
9.9998648
9.9998635
9.9998623
9.9998613
9.9998606
9.99986
9.9998595
9.9998591
9.9998588
9.9998585
9.9998584
9.9998582
9.9998581
9.999858
9.9998579
9.9998578
9.9998578
9.9998578
9.9998577
9.9998577
9.9998577
9.9998577
9.9998576
9.9998576
9.9998576
9.9998576
9.9998576
9.9998576
9.9998576
9.9998576
9.9998576
9.9998576
9.9998576
9.9998576
9.9998576
9.9998576
9.9998576
9.9998576
9.9998576
9.9998576
9.9998576
9.9998576
9.9998576
9.9998576
9.9998576
9.9998576
9.9998576
9.9998576
9.9998576
9.9998576
9.9998579
1218.5534
197.80922
10.074548
10.791318
10.561569
10.539567
10.270829
10.224785
10.258637
10.18962
10.20494
10.231043
10.299485
10.22125
10.131146
10.049164
10.008876
10.000162
9.9999449
9.9999141
9.9998786
9.9998712
9.9998708
9.9998709
9.9998707
9.9998701
9.9998692
9.9998678
9.9998663
9.9998648
9.9998635
9.9998623
9.9998614
9.9998606
9.99986
9.9998595
9.9998591
9.9998588
9.9998586
9.9998584
9.9998582
9.9998581
9.999858
9.9998579
9.9998579
9.9998578
9.9998578
9.9998577
9.9998577
9.9998577
9.9998577
9.9998576
9.9998576
9.9998576
9.9998576
9.9998576
9.9998576
9.9998576
9.9998576
9.9998576
9.9998576
9.9998576
9.9998576
9.9998576
9.9998576
9.9998576
9.9998576
9.9998576
9.9998576
9.9998576
9.9998576
9.9998576
9.9998576
9.9998576
9.9998576
9.9998576
9.9998576
9.9998576
9.9998576
9.9998579
1195.9763
185.44029
10.248094
10.626448
10.518592
10.240854
10.2338
10.179349
10.273894
10.184557
10.212059
10.202987
10.303235
10.226272
10.138885
10.053971
10.011163
10.000432
9.9999349
9.9999179
9.9998811
9.9998716
9.9998708
9.9998709
9.9998708
9.9998703
9.9998694
9.9998681
9.9998667
9.9998652
9.9998638
9.9998626
9.9998616
9.9998608
9.9998601
9.9998596
9.9998592
9.9998589
9.9998586
9.9998584
9.9998583
9.9998581
9.999858
9.9998579
9.9998579
9.9998578
9.9998578
9.9998577
9.9998577
9.9998577
9.9998577
9.9998577
9.9998576
9.9998576
9.9998576
9.9998576
9.9998576
9.9998576
9.9998576
9.9998576
9.9998576
9.9998576
9.9998576
9.9998576
9.9998576
9.9998576
9.9998576
9.9998576
9.9998576
9.9998576
9.9998576
9.9998576
9.9998576
9.9998576
9.9998576
9.9998576
9.9998576
9.9998576
9.9998576
9.9998579
1042.9029
10.440536
10.312805
9.9806601
10.013504
10.091797
10.009674
10.02133
10.008495
10.046707
10.10374
10.108012
10.073301
10.031026
10.006338
10.000286
9.9998574
9.9998519
9.9998664
9.9998706
9.9998711
9.999871
9.9998707
9.9998701
9.9998692
9.9998678
9.9998663
9.9998648
9.9998634
9.9998622
9.9998613
9.9998605
9.9998599
9.9998594
9.999859
9.9998587
9.9998585
9.9998583
9.9998582
9.999858
9.999858
9.9998579
9.9998578
9.9998578
9.9998577
9.9998577
9.9998577
9.9998577
9.9998577
9.9998576
9.9998576
9.9998576
9.9998576
9.9998576
9.9998576
9.9998576
9.9998576
9.9998576
9.9998576
9.9998576
9.9998576
9.9998576
9.9998576
9.9998576
9.9998576
9.9998576
9.9998576
9.9998576
9.9998576
9.9998576
9.9998576
9.9998576
9.9998576
9.9998576
9.9998576
9.9998576
9.9998576
9.9998576
9.9998576
9.9998576
1045.4622
9.8846893
10.286222
9.9603867
10.021885
10.015678
10.016348
10.017837
10.011601
10.040364
10.107248
10.105811
10.076091
10.034179
10.00822
10.000504
9.9998645
9.9998493
9.9998648
9.9998703
9.9998711
9.999871
9.9998707
9.9998701
9.9998692
9.9998678
9.9998663
9.9998648
9.9998634
9.9998622
9.9998613
9.9998605
9.9998599
9.9998594
9.999859
9.9998587
9.9998585
9.9998583
9.9998582
9.9998581
9.999858
9.9998579
9.9998578
9.9998578
9.9998577
9.9998577
9.9998577
9.9998577
9.9998577
9.9998576
9.9998576
9.9998576
9.9998576
9.9998576
9.9998576
9.9998576
9.9998576
9.9998576
9.9998576
9.9998576
9.9998576
9.9998576
9.9998576
9.9998576
9.9998576
9.9998576
9.9998576
9.9998576
9.9998576
9.9998576
9.9998576
9.9998576
9.9998576
9.9998576
9.9998576
9.9998576
9.9998576
9.9998576
9.9998576
9.9998576
1047.3084
9.8408805
10.277956
9.9819611
9.9964664
10.051314
10.001857
10.014793
10.006096
10.042251
10.110014
10.105134
10.075055
10.033684
10.008184
10.000515
9.9998669
9.9998499
9.9998648
9.9998703
9.9998711
9.999871
9.9998707
9.9998701
9.9998691
9.9998679
9.9998663
9.9998648
9.9998634
9.9998622
9.9998613
9.9998605
9.9998599
9.9998594
9.999859
9.9998587
9.9998585
9.9998583
9.9998582
9.9998581
9.999858
9.9998579
9.9998578
9.9998578
9.9998577
9.9998577
9.9998577
9.9998577
9.9998577
9.9998576
9.9998576
9.9998576
9.9998576
9.9998576
9.9998576
9.9998576
9.9998576
9.9998576
9.9998576
9.9998576
9.9998576
9.9998576
9.9998576
9.9998576
9.9998576
9.9998576
9.9998576
9.9998576
9.9998576
9.9998576
9.9998576
9.9998576
9.9998576
9.9998576
9.9998576
9.9998576
9.9998576
9.9998576
9.9998576
9.9998576
1048.6088
9.8386115
10.276427
9.9729727
10.015439
10.027403
10.006501
10.010527
10.01435
10.048406
10.106349
10.102556
10.073359
10.03304
10.008047
10.000507
9.9998677
9.9998505
9.9998649
9.9998703
9.9998711
9.999871
9.9998707
9.9998702
9.9998692
9.9998678
9.9998663
9.9998648
9.9998634
9.9998623
9.9998613
9.9998605
9.9998599
9.9998594
9.999859
9.9998587
9.9998585
9.9998583
9.9998582
9.9998581
9.999858
9.9998579
9.9998578
9.9998578
9.9998577
9.9998577
9.9998577
9.9998577
9.9998577
9.9998576
9.9998576
9.9998576
9.9998576
9.9998576
9.9998576
9.9998576
9.9998576
9.9998576
9.9998576
9.9998576
9.9998576
9.9998576
9.9998576
9.9998576
9.9998576
9.9998576
9.9998576
9.9998576
9.9998576
9.9998576
9.9998576
9.9998576
9.9998576
9.9998576
9.9998576
9.9998576
9.9998576
9.9998576
9.9998576
9.9998576
1049.9424
9.8444064
10.269126
9.9747348
10.013787
10.028204
10.006193
10.010462
10.014027
10.046104
10.103036
10.099866
10.071717
10.032413
10.007922
10.000501
9.9998687
9.999851
9.999865
9.9998703
9.9998711
9.999871
9.9998707
9.9998702
9.9998692
9.9998678
9.9998664
9.9998648
9.9998635
9.9998623
9.9998613
9.9998605
9.9998599
9.9998594
9.9998591
9.9998588
9.9998585
9.9998583
9.9998582
9.9998581
9.999858
9.9998579
9.9998578
9.9998578
9.9998577
9.9998577
9.9998577
9.9998577
9.9998577
9.9998576
9.9998576
9.9998576
9.9998576
9.9998576
9.9998576
9.9998576
9.9998576
9.9998576
9.9998576
9.9998576
9.9998576
9.9998576
9.9998576
9.9998576
9.9998576
9.9998576
9.9998576
9.9998576
9.9998576
9.9998576
9.9998576
9.9998576
9.9998576
9.9998576
9.9998576
9.9998576
9.9998576
9.9998576
9.9998576
9.9998576
1051.2545
9.8521032
10.263418
9.9752476
10.014182
10.027602
10.005963
10.01001
10.013664
10.044065
10.099886
10.097287
10.070147
10.031811
10.007804
10.000496
9.9998696
9.9998514
9.999865
9.9998703
9.9998711
9.999871
9.9998707
9.9998702
9.9998692
9.9998678
9.9998663
9.9998649
9.9998635
9.9998623
9.9998613
9.9998606
9.9998599
9.9998594
9.9998591
9.9998588
9.9998585
9.9998583
9.9998582
9.9998581
9.999858
9.9998579
9.9998578
9.9998578
9.9998577
9.9998577
9.9998577
9.9998577
9.9998577
9.9998576
9.9998576
9.9998576
9.9998576
9.9998576
9.9998576
9.9998576
9.9998576
9.9998576
9.9998576
9.9998576
9.9998576
9.9998576
9.9998576
9.9998576
9.9998576
9.9998576
9.9998576
9.9998576
9.9998576
9.9998576
9.9998576
9.9998576
9.9998576
9.9998576
9.9998576
9.9998576
9.9998576
9.9998576
9.9998576
9.9998576
1052.5616
9.8591182
10.257336
9.975997
10.013577
10.02718
10.005667
10.009727
10.013377
10.042236
10.096836
10.094776
10.068603
10.031213
10.007684
10.00049
9.9998706
9.9998518
9.9998651
9.9998703
9.9998711
9.999871
9.9998708
9.9998702
9.9998692
9.9998679
9.9998663
9.9998648
9.9998635
9.9998623
9.9998613
9.9998606
9.9998599
9.9998595
9.9998591
9.9998588
9.9998585
9.9998583
9.9998582
9.9998581
9.999858
9.9998579
9.9998578
9.9998578
9.9998577
9.9998577
9.9998577
9.9998577
9.9998577