/*--------------------------------*- C++ -*----------------------------------*\
| =========                 |                                                 |
| \\      /  F ield         | OpenFOAM: The Open Source CFD Toolbox           |
|  \\    /   O peration     | Version:  2406                                  |
|   \\  /    A nd           | Website:  www.openfoam.com                      |
|    \\/     M anipulation  |                                                 |
\*---------------------------------------------------------------------------*/
FoamFile
{
    version     2.0;
    format      ascii;
    arch        "LSB;label=32;scalar=64";
    class       volScalarField;
    location    "0.0001";
    object      p;
}
// * * * * * * * * * * * * * * * * * * * * * * * * * * * * * * * * * * * * * //

dimensions      [1 -1 -2 0 0 0 0];

internalField   nonuniform List<scalar> 
16000
(
100076.3
100000.53
100088.54
100009.74
100068.48
100032.76
100053.01
100032.11
100046.07
100046.14
100053.96
100040.79
100025.86
100009.84
100002.56
99999.895
99999.874
99999.942
99999.996
100000
100000
100000
100000
100000
100000
100000
100000
100000
100000
100000
100000
100000
100000
100000
100000
100000
100000
100000
100000
100000
100000
100000
100000
100000
100000
100000
100000
100000
100000
100000
100000
100000
100000
100000
100000
100000
100000
100000
100000
100000
100000
100000
100000
100000
100000
100000
100000
100000
100000
100000
100000
100000
100000
100000
100000
100000
100000
100000
100000
100000
100148.17
100128.24
100165.21
100117.21
100144.37
100134.47
100145.72
100125.37
100137.23
100150.4
100164.94
100134.02
100087.85
100037.26
100012
100001.99
100000.06
99999.884
99999.961
99999.994
100000
100000
100000
100000
100000
100000
100000
100000
100000
100000
100000
100000
100000
100000
100000
100000
100000
100000
100000
100000
100000
100000
100000
100000
100000
100000
100000
100000
100000
100000
100000
100000
100000
100000
100000
100000
100000
100000
100000
100000
100000
100000
100000
100000
100000
100000
100000
100000
100000
100000
100000
100000
100000
100000
100000
100000
100000
100000
100000
100000
100240.56
100243.7
100240.34
100249.62
100226.53
100250.66
100241.17
100226.64
100226.14
100259.96
100281.07
100238.13
100162.21
100075.07
100026.49
100005.45
100000.49
99999.835
99999.919
99999.982
100000
100000
100000
100000
100000
100000
100000
100000
100000
100000
100000
100000
100000
100000
100000
100000
100000
100000
100000
100000
100000
100000
100000
100000
100000
100000
100000
100000
100000
100000
100000
100000
100000
100000
100000
100000
100000
100000
100000
100000
100000
100000
100000
100000
100000
100000
100000
100000
100000
100000
100000
100000
100000
100000
100000
100000
100000
100000
100000
100000
100320.3
100364.86
100334.96
100384.86
100299.17
100374.39
100343.09
100330.21
100312.06
100370.72
100400.48
100353.52
100250.49
100122.49
100045.76
100010.36
100001.19
99999.774
99999.866
99999.966
99999.998
100000
100000
100000
100000
100000
100000
100000
100000
100000
100000
100000
100000
100000
100000
100000
100000
100000
100000
100000
100000
100000
100000
100000
100000
100000
100000
100000
100000
100000
100000
100000
100000
100000
100000
100000
100000
100000
100000
100000
100000
100000
100000
100000
100000
100000
100000
100000
100000
100000
100000
100000
100000
100000
100000
100000
100000
100000
100000
100000
100400.55
100507.56
100422.38
100524.25
100365.33
100501.77
100445.4
100438.46
100394.89
100486.68
100522.51
100477.58
100350.93
100179.92
100070.64
100017.23
100002.32
99999.735
99999.804
99999.943
99999.996
100000
100000
100000
100000
100000
100000
100000
100000
100000
100000
100000
100000
100000
100000
100000
100000
100000
100000
100000
100000
100000
100000
100000
100000
100000
100000
100000
100000
100000
100000
100000
100000
100000
100000
100000
100000
100000
100000
100000
100000
100000
100000
100000
100000
100000
100000
100000
100000
100000
100000
100000
100000
100000
100000
100000
100000
100000
100000
100000
100489.49
100664.38
100501.74
100671.12
100421.55
100645.61
100558.92
100548.61
100476.81
100604.18
100648.79
100609.06
100463.33
100247.84
100101.75
100026.44
100004.03
99999.742
99999.733
99999.912
99999.993
100000
100000
100000
100000
100000
100000
100000
100000
100000
100000
100000
100000
100000
100000
100000
100000
100000
100000
100000
100000
100000
100000
100000
100000
100000
100000
100000
100000
100000
100000
100000
100000
100000
100000
100000
100000
100000
100000
100000
100000
100000
100000
100000
100000
100000
100000
100000
100000
100000
100000
100000
100000
100000
100000
100000
100000
100000
100000
100000
100577.34
100837.92
100577.77
100831.56
100477.6
100798.71
100676.64
100664.88
100565.91
100722.49
100780.58
100746.9
100587.18
100326.46
100139.49
100038.32
100006.45
99999.823
99999.653
99999.872
99999.987
100000
100000
100000
100000
100000
100000
100000
100000
100000
100000
100000
100000
100000
100000
100000
100000
100000
100000
100000
100000
100000
100000
100000
100000
100000
100000
100000
100000
100000
100000
100000
100000
100000
100000
100000
100000
100000
100000
100000
100000
100000
100000
100000
100000
100000
100000
100000
100000
100000
100000
100000
100000
100000
100000
100000
100000
100000
100000
100000
100661.93
101034.43
100647.4
101013.17
100532.88
100958.47
100795.87
100789.84
100671.33
100837.33
100920.84
100889.36
100721.65
100416.04
100184.27
100053.13
100009.68
100000.01
99999.565
99999.822
99999.979
100000
100000
100000
100000
100000
100000
100000
100000
100000
100000
100000
100000
100000
100000
100000
100000
100000
100000
100000
100000
100000
100000
100000
100000
100000
100000
100000
100000
100000
100000
100000
100000
100000
100000
100000
100000
100000
100000
100000
100000
100000
100000
100000
100000
100000
100000
100000
100000
100000
100000
100000
100000
100000
100000
100000
100000
100000
100000
100000
100748.88
101251.43
100713.04
101210.31
100589.52
101130.28
100916.9
100932.99
100786.12
100950.02
101060.56
101045.99
100867.07
100516.62
100236.42
100071.18
100013.87
100000.33
99999.472
99999.764
99999.969
100000
100000
100000
100000
100000
100000
100000
100000
100000
100000
100000
100000
100000
100000
100000
100000
100000
100000
100000
100000
100000
100000
100000
100000
100000
100000
100000
100000
100000
100000
100000
100000
100000
100000
100000
100000
100000
100000
100000
100000
100000
100000
100000
100000
100000
100000
100000
100000
100000
100000
100000
100000
100000
100000
100000
100000
100000
100000
100000
100847.74
101492.68
100772.34
101425.84
100656.2
101316
101036.01
101092.31
100908.94
101063.33
101203.39
101215.28
101024.94
100628.64
100296.34
100092.74
100019.13
100000.82
99999.376
99999.697
99999.955
100000
100000
100000
100000
100000
100000
100000
100000
100000
100000
100000
100000
100000
100000
100000
100000
100000
100000
100000
100000
100000
100000
100000
100000
100000
100000
100000
100000
100000
100000
100000
100000
100000
100000
100000
100000
100000
100000
100000
100000
100000
100000
100000
100000
100000
100000
100000
100000
100000
100000
100000
100000
100000
100000
100000
100000
100000
100000
100000
100948.77
101775.07
100817.32
101677.46
100725.86
101531.86
101137.78
101264.88
101040.55
101184.53
101347.19
101399.84
101195.19
100752.73
100364.69
100118.14
100025.63
100001.52
99999.279
99999.621
99999.938
99999.999
100000
100000
100000
100000
100000
100000
100000
100000
100000
100000
100000
100000
100000
100000
100000
100000
100000
100000
100000
100000
100000
100000
100000
100000
100000
100000
100000
100000
100000
100000
100000
100000
100000
100000
100000
100000
100000
100000
100000
100000
100000
100000
100000
100000
100000
100000
100000
100000
100000
100000
100000
100000
100000
100000
100000
100000
100000
100000
101044.86
102117.33
100840.99
101979.1
100790.91
101761.73
101245.76
101451.39
101181.25
101315.79
101491.67
101603.48
101377.35
100889.97
100442.3
100147.81
100033.52
100002.46
99999.186
99999.537
99999.917
99999.997
100000
100000
100000
100000
100000
100000
100000
100000
100000
100000
100000
100000
100000
100000
100000
100000
100000
100000
100000
100000
100000
100000
100000
100000
100000
100000
100000
100000
100000
100000
100000
100000
100000
100000
100000
100000
100000
100000
100000
100000
100000
100000
100000
100000
100000
100000
100000
100000
100000
100000
100000
100000
100000
100000
100000
100000
100000
100000
101137.12
102521.86
100844.81
102335.3
100852.51
102014.82
101358.35
101656.48
101331.34
101456.53
101641.97
101819.04
101575
101041.99
100530.24
100182.3
100043
100003.71
99999.103
99999.443
99999.89
99999.994
100000
100000
100000
100000
100000
100000
100000
100000
100000
100000
100000
100000
100000
100000
100000
100000
100000
100000
100000
100000
100000
100000
100000
100000
100000
100000
100000
100000
100000
100000
100000
100000
100000
100000
100000
100000
100000
100000
100000
100000
100000
100000
100000
100000
100000
100000
100000
100000
100000
100000
100000
100000
100000
100000
100000
100000
100000
100000
101222.11
102996.34
100833.66
102748.32
100910.62
102296.66
101476.17
101886.58
101492.8
101607.75
101799.34
102046.37
101789.35
101210.53
100629.75
100222.32
100054.34
100005.31
99999.035
99999.338
99999.858
99999.991
100000
100000
100000
100000
100000
100000
100000
100000
100000
100000
100000
100000
100000
100000
100000
100000
100000
100000
100000
100000
100000
100000
100000
100000
100000
100000
100000
100000
100000
100000
100000
100000
100000
100000
100000
100000
100000
100000
100000
100000
100000
100000
100000
100000
100000
100000
100000
100000
100000
100000
100000
100000
100000
100000
100000
100000
100000
100000
101298.91
103583.48
100796.47
103245.02
100966.32
102615.43
101599.66
102151.72
101667.09
101773.81
101966.18
102286.97
102021.44
101397.1
100742.18
100268.61
100067.8
100007.32
99998.989
99999.222
99999.819
99999.987
100000
100000
100000
100000
100000
100000
100000
100000
100000
100000
100000
100000
100000
100000
100000
100000
100000
100000
100000
100000
100000
100000
100000
100000
100000
100000
100000
100000
100000
100000
100000
100000
100000
100000
100000
100000
100000
100000
100000
100000
100000
100000
100000
100000
100000
100000
100000
100000
100000
100000
100000
100000
100000
100000
100000
100000
100000
100000
101368.62
104341.31
100720.82
103854.48
101017.91
102983.81
101730.19
102457.44
101861.78
101961.38
102147.91
102545.11
102273.96
101603.79
100868.93
100321.92
100083.65
100009.83
99998.972
99999.095
99999.774
99999.982
100000
100000
100000
100000
100000
100000
100000
100000
100000
100000
100000
100000
100000
100000
100000
100000
100000
100000
100000
100000
100000
100000
100000
100000
100000
100000
100000
100000
100000
100000
100000
100000
100000
100000
100000
100000
100000
100000
100000
100000
100000
100000
100000
100000
100000
100000
100000
100000
100000
100000
100000
100000
100000
100000
100000
100000
100000
100000
101435.35
105310.05
100604.69
104604.43
101071.11
103415.9
101879.87
102805.89
102081.25
102174.53
102351.17
102828.82
102554.2
101834.6
101011.69
100382.88
100102.08
100012.85
99998.988
99998.954
99999.722
99999.976
100000
100000
100000
100000
100000
100000
100000
100000
100000
100000
100000
100000
100000
100000
100000
100000
100000
100000
100000
100000
100000
100000
100000
100000
100000
100000
100000
100000
100000
100000
100000
100000
100000
100000
100000
100000
100000
100000
100000
100000
100000
100000
100000
100000
100000
100000
100000
100000
100000
100000
100000
100000
100000
100000
100000
100000
100000
100000
101526.71
106590.94
100441.13
105529.07
101114.67
103920.1
102036.68
103193.88
102317.59
102409.1
102574.87
103143.71
102869.79
102094.09
101172.05
100451.84
100123.07
100016.37
99999.035
99998.801
99999.663
99999.968
100000.01
100000
100000
100000
100000
100000
100000
100000
100000
100000
100000
100000
100000
100000
100000
100000
100000
100000
100000
100000
100000
100000
100000
100000
100000
100000
100000
100000
100000
100000
100000
100000
100000
100000
100000
100000
100000
100000
100000
100000
100000
100000
100000
100000
100000
100000
100000
100000
100000
100000
100000
100000
100000
100000
100000
100000
100000
100000
101585.28
108245.52
100163.79
106684.85
101161.82
104510.66
102212.24
103627.7
102568.73
102655.26
102811.03
103484.86
103217.24
102379.98
101348.3
100527.79
100146.09
100020.26
99999.098
99998.634
99999.6
99999.961
100000.01
100000
100000
100000
100000
100000
100000
100000
100000
100000
100000
100000
100000
100000
100000
100000
100000
100000
100000
100000
100000
100000
100000
100000
100000
100000
100000
100000
100000
100000
100000
100000
100000
100000
100000
100000
100000
100000
100000
100000
100000
100000
100000
100000
100000
100000
100000
100000
100000
100000
100000
100000
100000
100000
100000
100000
100000
100000
101575.17
110794.21
99623.891
108375.62
101189.99
105192.65
102351.67
104064.86
102815.16
102916.64
103065.04
103842.89
103574.18
102675.86
101530.6
100606.16
100169.68
100024.2
99999.154
99998.463
99999.538
99999.953
100000.01
100000
100000
100000
100000
100000
100000
100000
100000
100000
100000
100000
100000
100000
100000
100000
100000
100000
100000
100000
100000
100000
100000
100000
100000
100000
100000
100000
100000
100000
100000
100000
100000
100000
100000
100000
100000
100000
100000
100000
100000
100000
100000
100000
100000
100000
100000
100000
100000
100000
100000
100000
100000
100000
100000
100000
100000
100000
101341.01
114453.51
98806.191
110526.96
100998.3
105908.1
102426.07
104539.6
103061.65
103242.4
103351.79
104201.37
103908.76
102953.37
101700.62
100677.66
100190.86
100027.6
99999.168
99998.303
99999.486
99999.948
100000.01
100000
100000
100000
100000
100000
100000
100000
100000
100000
100000
100000
100000
100000
100000
100000
100000
100000
100000
100000
100000
100000
100000
100000
100000
100000
100000
100000
100000
100000
100000
100000
100000
100000
100000
100000
100000
100000
100000
100000
100000
100000
100000
100000
100000
100000
100000
100000
100000
100000
100000
100000
100000
100000
100000
100000
100000
100000
100985.02
118705.01
97854.196
112744.7
100702.2
106676.55
102499.63
105032.27
103269.96
103561.11
103643.6
104520.95
104203.57
103186.33
101836.06
100730.32
100205.21
100029.49
99999.069
99998.174
99999.453
99999.945
100000.01
100000
100000
100000
100000
100000
100000
100000
100000
100000
100000
100000
100000
100000
100000
100000
100000
100000
100000
100000
100000
100000
100000
100000
100000
100000
100000
100000
100000
100000
100000
100000
100000
100000
100000
100000
100000
100000
100000
100000
100000
100000
100000
100000
100000
100000
100000
100000
100000
100000
100000
100000
100000
100000
100000
100000
100000
100000
100699.66
123197.75
96776.718
114982.55
100306.73
107499.54
102494.25
105440.14
103367.27
103814.14
103925.65
104763.52
104453.67
103351.39
101914.46
100751.85
100208.34
100028.98
99998.806
99998.101
99999.451
99999.948
100000.01
100000
100000
100000
100000
100000
100000
100000
100000
100000
100000
100000
100000
100000
100000
100000
100000
100000
100000
100000
100000
100000
100000
100000
100000
100000
100000
100000
100000
100000
100000
100000
100000
100000
100000
100000
100000
100000
100000
100000
100000
100000
100000
100000
100000
100000
100000
100000
100000
100000
100000
100000
100000
100000
100000
100000
100000
100000
100375.48
126161.18
96023.231
116666.64
99763.011
108173.37
102328.97
105671.77
103336.26
104013.1
104088.2
104943.67
104659.54
103429.27
101917.58
100734.43
100198.06
100025.81
99998.405
99998.102
99999.487
99999.955
100000.01
100000
100000
100000
100000
100000
100000
100000
100000
100000
100000
100000
100000
100000
100000
100000
100000
100000
100000
100000
100000
100000
100000
100000
100000
100000
100000
100000
100000
100000
100000
100000
100000
100000
100000
100000
100000
100000
100000
100000
100000
100000
100000
100000
100000
100000
100000
100000
100000
100000
100000
100000
100000
100000
100000
100000
100000
100000
99886.913
130110.93
95205.237
118013.35
99146.831
108723.71
101959.73
105652.69
103261.64
104145.64
104127.15
105102.14
104759.52
103407.62
101845.41
100680.6
100176.2
100020.66
99997.976
99998.185
99999.555
99999.966
100000.01
100000
100000
100000
100000
100000
100000
100000
100000
100000
100000
100000
100000
100000
100000
100000
100000
100000
100000
100000
100000
100000
100000
100000
100000
100000
100000
100000
100000
100000
100000
100000
100000
100000
100000
100000
100000
100000
100000
100000
100000
100000
100000
100000
100000
100000
100000
100000
100000
100000
100000
100000
100000
100000
100000
100000
100000
100000
98741.413
136137.65
93621.5
119113.05
98551.044
109019.23
101569.39
105371.03
103168.6
104137.44
104153.45
105196.31
104759.83
103291.74
101716.31
100604.29
100148.33
100014.88
99997.65
99998.33
99999.64
99999.978
100000.01
100000
100000
100000
100000
100000
100000
100000
100000
100000
100000
100000
100000
100000
100000
100000
100000
100000
100000
100000
100000
100000
100000
100000
100000
100000
100000
100000
100000
100000
100000
100000
100000
100000
100000
100000
100000
100000
100000
100000
100000
100000
100000
100000
100000
100000
100000
100000
100000
100000
100000
100000
100000
100000
100000
100000
100000
100000
98506.859
137252.06
92507.159
118067.01
98199.791
108762.05
101535.63
104886.34
103004.2
104075.82
104212.87
105219.97
104693.89
103126.34
101568.79
100527.11
100122.05
100010.03
99997.502
99998.501
99999.718
99999.988
100000.01
100000
100000
100000
100000
100000
100000
100000
100000
100000
100000
100000
100000
100000
100000
100000
100000
100000
100000
100000
100000
100000
100000
100000
100000
100000
100000
100000
100000
100000
100000
100000
100000
100000
100000
100000
100000
100000
100000
100000
100000
100000
100000
100000
100000
100000
100000
100000
100000
100000
100000
100000
100000
100000
100000
100000
100000
100000
98591.112
127035.86
94272.393
113687.17
98416.293
107539.4
101928.87
104455.84
102915.05
103996.03
104319.13
105189.9
104622.65
102975.97
101454.4
100472.02
100104.49
100007.14
99997.488
99998.64
99999.769
99999.994
100000.01
100000
100000
100000
100000
100000
100000
100000
100000
100000
100000
100000
100000
100000
100000
100000
100000
100000
100000
100000
100000
100000
100000
100000
100000
100000
100000
100000
100000
100000
100000
100000
100000
100000
100000
100000
100000
100000
100000
100000
100000
100000
100000
100000
100000
100000
100000
100000
100000
100000
100000
100000
100000
100000
100000
100000
100000
100000
98790.305
117831.04
97095.382
110034.58
99468.481
106364.05
102349.32
104061.25
102878.05
103940.96
104434.07
105119.68
104602.66
102912.99
101421.57
100458.48
100101.01
100006.72
99997.504
99998.674
99999.776
99999.994
100000.01
100000
100000
100000
100000
100000
100000
100000
100000
100000
100000
100000
100000
100000
100000
100000
100000
100000
100000
100000
100000
100000
100000
100000
100000
100000
100000
100000
100000
100000
100000
100000
100000
100000
100000
100000
100000
100000
100000
100000
100000
100000
100000
100000
100000
100000
100000
100000
100000
100000
100000
100000
100000
100000
100000
100000
100000
100000
98810.286
116107.53
98190.863
108925.89
99985.824
105838.83
102528.16
103831.42
102863.11
103882.42
104449.4
105056.95
104678.99
103020.71
101526.41
100516.1
100121.96
100011.15
99997.755
99998.541
99999.701
99999.984
100000.01
100000
100000
100000
100000
100000
100000
100000
100000
100000
100000
100000
100000
100000
100000
100000
100000
100000
100000
100000
100000
100000
100000
100000
100000
100000
100000
100000
100000
100000
100000
100000
100000
100000
100000
100000
100000
100000
100000
100000
100000
100000
100000
100000
100000
100000
100000
100000
100000
100000
100000
100000
100000
100000
100000
100000
100000
100000
99197.484
98466.306
99650.194
98466.033
99347.266
98658.239
99114.433
99063.292
98998.361
98631.284
98713.315
99062.621
99478.507
99812.349
99950.402
99994.671
100000.6
100000.56
100000.12
100000.01
99999.997
99999.999
100000
100000
100000
100000
100000
100000
100000
100000
100000
100000
100000
100000
100000
100000
100000
100000
100000
100000
100000
100000
100000
100000
100000
100000
100000
100000
100000
100000
100000
100000
100000
100000
100000
100000
100000
100000
100000
100000
100000
100000
100000
100000
100000
100000
100000
100000
100000
100000
100000
100000
100000
100000
100000
100000
100000
100000
100000
100000
99174.17
98496.555
99659.039
98384.175
99307.228
98672.731
99052.888
98948.543
98886.791
98564.679
98619.13
99013.827
99433.31
99783.651
99939.33
99992.42
100000.49
100000.66
100000.17
100000.02
99999.997
99999.999
100000
100000
100000
100000
100000
100000
100000
100000
100000
100000
100000
100000
100000
100000
100000
100000
100000
100000
100000
100000
100000
100000
100000
100000
100000
100000
100000
100000
100000
100000
100000
100000
100000
100000
100000
100000
100000
100000
100000
100000
100000
100000
100000
100000
100000
100000
100000
100000
100000
100000
100000
100000
100000
100000
100000
100000
100000
100000
99074.715
98377.274
99464.365
98276.272
99171.648
98548.265
98961.657
98829.166
98814.182
98533.023
98606.83
99022.68
99440.983
99785.864
99939.444
99992.2
100000.43
100000.64
100000.17
100000.02
99999.997
99999.999
100000
100000
100000
100000
100000
100000
100000
100000
100000
100000
100000
100000
100000
100000
100000
100000
100000
100000
100000
100000
100000
100000
100000
100000
100000
100000
100000
100000
100000
100000
100000
100000
100000
100000
100000
100000
100000
100000
100000
100000
100000
100000
100000
100000
100000
100000
100000
100000
100000
100000
100000
100000
100000
100000
100000
100000
100000
100000
99082.678
98401.43
99451.18
98314.415
99183.715
98576.854
98974.054
98856.144
98850.981
98571.44
98643.477
99044.879
99452.629
99789.534
99940.279
99992.219
100000.4
100000.62
100000.17
100000.02
99999.997
99999.999
100000
100000
100000
100000
100000
100000
100000
100000
100000
100000
100000
100000
100000
100000
100000
100000
100000
100000
100000
100000
100000
100000
100000
100000
100000
100000
100000
100000
100000
100000
100000
100000
100000
100000
100000
100000
100000
100000
100000
100000
100000
100000
100000
100000
100000
100000
100000
100000
100000
100000
100000
100000
100000
100000
100000
100000
100000
100000
99104.061
98440.558
99453.475
98358.933
99203.71
98611.374
98997.487
98888.71
98885.322
98612.93
98679.836
99067.792
99463.931
99793.071
99941.018
99992.223
100000.37
100000.61
100000.17
100000.02
99999.997
99999.999
100000
100000
100000
100000
100000
100000
100000
100000
100000
100000
100000
100000
100000
100000
100000
100000
100000
100000
100000
100000
100000
100000
100000
100000
100000
100000
100000
100000
100000
100000
100000
100000
100000
100000
100000
100000
100000
100000
100000
100000
100000
100000
100000
100000
100000
100000
100000
100000
100000
100000
100000
100000
100000
100000
100000
100000
100000
100000
99129.509
98482.248
99463.544
98407.714
99228.12
98648.607
99023.458
98920.989
98918.894
98652.544
98714.159
99089.638
99474.674
99796.43
99941.709
99992.223
100000.34
100000.6
100000.16
100000.02
99999.997
99999.999
100000
100000
100000
100000
100000
100000
100000
100000
100000
100000
100000
100000
100000
100000
100000
100000
100000
100000
100000
100000
100000
100000
100000
100000
100000
100000
100000
100000
100000
100000
100000
100000
100000
100000
100000
100000
100000
100000
100000
100000
100000
100000
100000
100000
100000
100000
100000
100000
100000
100000
100000
100000
100000
100000
100000
100000
100000
100000
99153.665
98522.854
99472.643
98454.18
99251.11
98684.179
99048.197
98951.703
98950.964
98690.716
98747.497
99110.981
99485.27
99799.777
99942.412
99992.227
100000.31
100000.58
100000.16
100000.02
99999.997
99999.999
100000
100000
100000
100000
100000
100000
100000
100000
100000
100000
100000
100000
100000
100000
100000
100000
100000
100000
100000
100000
100000
100000
100000
100000
100000
100000
100000
100000
100000
100000
100000
100000
100000
100000
100000
100000
100000
100000
100000
100000
100000
100000
100000
100000
100000
100000
100000
100000
100000
100000
100000
100000
100000
100000
100000
100000
100000
100000
99177.317
98562.494
99481.987
98499.337
99273.492
98718.865
99072.512
98981.716
98982.168
98728.014
98780.293
99132.088
99495.856
99803.167
99943.141
99992.24
100000.28
100000.57
100000.16
100000.02
99999.997
99999.999
100000
100000
100000
100000
100000
100000
100000
100000
100000
100000
100000
100000
100000
100000
100000
100000
100000
100000
100000
100000
100000
100000
100000
100000
100000
100000
100000
100000
100000
100000
100000
100000
100000
100000
100000
100000
100000
100000
100000
100000
100000
100000
100000
100000
100000
100000
100000
100000
100000
100000
100000
100000
100000
100000
100000
100000
100000
100000
99200.705
98601.717
99491.737
98543.713
99295.557
98753.157
99096.715
99011.305
99012.847
98764.772
98812.845
99153.158
99506.548
99806.642
99943.91
99992.263
100000.26
100000.56
100000.16
100000.02
99999.997
99999.999
100000
100000
100000
100000
100000
100000
100000
100000
100000
100000
100000
100000
100000
100000
100000
100000
100000
100000
100000
100000
100000
100000
100000
100000
100000
100000
100000
100000
100000
100000
100000
100000
100000
100000
100000
100000
100000
100000
100000
100000
100000
100000
100000
100000
100000
100000
100000
100000
100000
100000
100000
100000
100000
100000
100000
100000
100000
100000
99223.894
98640.602
99501.881
98587.55
99317.367
98787.214
99120.91
99040.657
99043.116
98801.194
98845.318
99174.321
99517.415
99810.233
99944.727
99992.297
100000.23
100000.55
100000.16
100000.02
99999.998
99999.999
100000
100000
100000
100000
100000
100000
100000
100000
100000
100000
100000
100000
100000
100000
100000
100000
100000
100000
100000
100000
100000
100000
100000
100000
100000
100000
100000
100000
100000
100000
100000
100000
100000
100000
100000
100000
100000
100000
100000
100000
100000
100000
100000
100000
100000
100000
100000
100000
100000
100000
100000
100000
100000
100000
100000
100000
100000
100000
99247.361
98679.648
99512.544
98631.273
99339.108
98821.387
99145.337
99070.005
99073.26
98837.561
98878.005
99195.777
99528.583
99813.989
99945.608
99992.345
100000.21
100000.53
100000.16
100000.02
99999.998
99999.999
100000
100000
100000
100000
100000
100000
100000
100000
100000
100000
100000
100000
100000
100000
100000
100000
100000
100000
100000
100000
100000
100000
100000
100000
100000
100000
100000
100000
100000
100000
100000
100000
100000
100000
100000
100000
100000
100000
100000
100000
100000
100000
100000
100000
100000
100000
100000
100000
100000
100000
100000
100000
100000
100000
100000
100000
100000
100000
99271.005
98719.034
99523.764
98675.145
99360.874
98855.869
99170.132
99099.546
99103.411
98874.117
98911.109
99217.678
99540.138
99817.947
99946.564
99992.408
100000.18
100000.52
100000.15
100000.02
99999.998
99999.999
100000
100000
100000
100000
100000
100000
100000
100000
100000
100000
100000
100000
100000
100000
100000
100000
100000
100000
100000
100000
100000
100000
100000
100000
100000
100000
100000
100000
100000
100000
100000
100000
100000
100000
100000
100000
100000
100000
100000
100000
100000
100000
100000
100000
100000
100000
100000
100000
100000
100000
100000
100000
100000
100000
100000
100000
100000
100000
99294.98
98759.11
99535.594
98719.501
99382.812
98890.96
99195.506
99129.508
99133.828
98911.129
98944.913
99240.227
99552.21
99822.159
99947.612
99992.49
100000.16
100000.51
100000.15
100000.02
99999.998
99999.999
100000
100000
100000
100000
100000
100000
100000
100000
100000
100000
100000
100000
100000
100000
100000
100000
100000
100000
100000
100000
100000
100000
100000
100000
100000
100000
100000
100000
100000
100000
100000
100000
100000
100000
100000
100000
100000
100000
100000
100000
100000
100000
100000
100000
100000
100000
100000
100000
100000
100000
100000
100000
100000
100000
100000
100000
100000
100000
99319.493
98800.248
99548.185
98764.682
99405.074
98926.939
99221.649
99160.111
99164.72
98948.854
98979.663
99263.597
99564.9
99826.669
99948.766
99992.592
100000.14
100000.49
100000.15
100000.02
99999.998
99999.999
100000
100000
100000
100000
100000
100000
100000
100000
100000
100000
100000
100000
100000
100000
100000
100000
100000
100000
100000
100000
100000
100000
100000
100000
100000
100000
100000
100000
100000
100000
100000
100000
100000
100000
100000
100000
100000
100000
100000
100000
100000
100000
100000
100000
100000
100000
100000
100000
100000
100000
100000
100000
100000
100000
100000
100000
100000
100000
99344.64
98842.686
99561.602
98810.994
99427.785
98964.051
99248.746
99191.585
99196.287
98987.561
99015.605
99287.975
99578.32
99831.523
99950.039
99992.717
100000.12
100000.48
100000.15
100000.02
99999.998
99999.999
100000
100000
100000
100000
100000
100000
100000
100000
100000
100000
100000
100000
100000
100000
100000
100000
100000
100000
100000
100000
100000
100000
100000
100000
100000
100000
100000
100000
100000
100000
100000
100000
100000
100000
100000
100000
100000
100000
100000
100000
100000
100000
100000
100000
100000
100000
100000
100000
100000
100000
100000
100000
100000
100000
100000
100000
100000
100000
99370.676
98886.856
99575.989
98858.802
99451.129
99002.638
99277.056
99224.182
99228.821
99027.564
99053.065
99313.591
99592.62
99836.784
99951.452
99992.869
100000.1
100000.46
100000.14
100000.02
99999.998
99999.999
100000
100000
100000
100000
100000
100000
100000
100000
100000
100000
100000
100000
100000
100000
100000
100000
100000
100000
100000
100000
100000
100000
100000
100000
100000
100000
100000
100000
100000
100000
100000
100000
100000
100000
100000
100000
100000
100000
100000
100000
100000
100000
100000
100000
100000
100000
100000
100000
100000
100000
100000
100000
100000
100000
100000
100000
100000
100000
99397.808
98933.154
99591.521
98908.432
99475.293
99043
99306.805
99258.129
99262.585
99069.166
99092.312
99340.652
99607.921
99842.503
99953.022
99993.05
100000.08
100000.44
100000.14
100000.02
99999.998
99999.999
100000
100000
100000
100000
100000
100000
100000
100000
100000
100000
100000
100000
100000
100000
100000
100000
100000
100000
100000
100000
100000
100000
100000
100000
100000
100000
100000
100000