/*--------------------------------*- C++ -*----------------------------------*\
| =========                 |                                                 |
| \\      /  F ield         | OpenFOAM: The Open Source CFD Toolbox           |
|  \\    /   O peration     | Version:  2406                                  |
|   \\  /    A nd           | Website:  www.openfoam.com                      |
|    \\/     M anipulation  |                                                 |
\*---------------------------------------------------------------------------*/
FoamFile
{
    version     2.0;
    format      ascii;
    arch        "LSB;label=32;scalar=64";
    class       volScalarField;
    location    "0.0001";
    object      rho;
}
// * * * * * * * * * * * * * * * * * * * * * * * * * * * * * * * * * * * * * //

dimensions      [1 -3 0 0 0 0 0];

internalField   nonuniform List<scalar> 
16000
(
1.1648859
1.1690175
1.1663249
1.1665392
1.1668675
1.1666351
1.1667613
1.1666252
1.1667115
1.166709
1.1667557
1.1666672
1.1665681
1.1664631
1.1664154
1.166398
1.1663978
1.1663983
1.1663986
1.1663986
1.1663986
1.1663986
1.1663986
1.1663986
1.1663986
1.1663986
1.1663986
1.1663986
1.1663986
1.1663986
1.1663986
1.1663986
1.1663986
1.1663986
1.1663986
1.1663986
1.1663986
1.1663986
1.1663986
1.1663986
1.1663986
1.1663986
1.1663986
1.1663986
1.1663986
1.1663986
1.1663986
1.1663986
1.1663986
1.1663986
1.1663986
1.1663986
1.1663986
1.1663986
1.1663986
1.1663986
1.1663986
1.1663986
1.1663986
1.1663986
1.1663986
1.1663986
1.1663986
1.1663986
1.1663986
1.1663986
1.1663986
1.1663986
1.1663986
1.1663986
1.1663986
1.1663986
1.1663986
1.1663986
1.1663986
1.1663986
1.1663986
1.1663986
1.1663986
1.1663986
1.1662849
1.1686146
1.167269
1.1671284
1.1673701
1.1672904
1.1673643
1.1672291
1.1673026
1.1673836
1.1674741
1.1672712
1.1669702
1.1666412
1.1664768
1.1664116
1.166399
1.1663979
1.1663984
1.1663986
1.1663986
1.1663986
1.1663986
1.1663986
1.1663986
1.1663986
1.1663986
1.1663986
1.1663986
1.1663986
1.1663986
1.1663986
1.1663986
1.1663986
1.1663986
1.1663986
1.1663986
1.1663986
1.1663986
1.1663986
1.1663986
1.1663986
1.1663986
1.1663986
1.1663986
1.1663986
1.1663986
1.1663986
1.1663986
1.1663986
1.1663986
1.1663986
1.1663986
1.1663986
1.1663986
1.1663986
1.1663986
1.1663986
1.1663986
1.1663986
1.1663986
1.1663986
1.1663986
1.1663986
1.1663986
1.1663986
1.1663986
1.1663986
1.1663986
1.1663986
1.1663986
1.1663986
1.1663986
1.1663986
1.1663986
1.1663986
1.1663986
1.1663986
1.1663986
1.1663986
1.1675216
1.1682862
1.1685021
1.1676623
1.1679956
1.1679897
1.1679896
1.1678818
1.1678804
1.1680916
1.1682257
1.167945
1.167452
1.1668865
1.1665709
1.1664341
1.1664018
1.1663976
1.1663981
1.1663985
1.1663986
1.1663986
1.1663986
1.1663986
1.1663986
1.1663986
1.1663986
1.1663986
1.1663986
1.1663986
1.1663986
1.1663986
1.1663986
1.1663986
1.1663986
1.1663986
1.1663986
1.1663986
1.1663986
1.1663986
1.1663986
1.1663986
1.1663986
1.1663986
1.1663986
1.1663986
1.1663986
1.1663986
1.1663986
1.1663986
1.1663986
1.1663986
1.1663986
1.1663986
1.1663986
1.1663986
1.1663986
1.1663986
1.1663986
1.1663986
1.1663986
1.1663986
1.1663986
1.1663986
1.1663986
1.1663986
1.1663986
1.1663986
1.1663986
1.1663986
1.1663986
1.1663986
1.1663986
1.1663986
1.1663986
1.1663986
1.1663986
1.1663986
1.1663986
1.1663986
1.1688007
1.1676526
1.1702422
1.1679992
1.168638
1.1687035
1.1686679
1.16854
1.1684409
1.1688057
1.1689984
1.1686904
1.1680236
1.1671938
1.1666959
1.1664661
1.1664064
1.1663972
1.1663978
1.1663984
1.1663986
1.1663986
1.1663986
1.1663986
1.1663986
1.1663986
1.1663986
1.1663986
1.1663986
1.1663986
1.1663986
1.1663986
1.1663986
1.1663986
1.1663986
1.1663986
1.1663986
1.1663986
1.1663986
1.1663986
1.1663986
1.1663986
1.1663986
1.1663986
1.1663986
1.1663986
1.1663986
1.1663986
1.1663986
1.1663986
1.1663986
1.1663986
1.1663986
1.1663986
1.1663986
1.1663986
1.1663986
1.1663986
1.1663986
1.1663986
1.1663986
1.1663986
1.1663986
1.1663986
1.1663986
1.1663986
1.1663986
1.1663986
1.1663986
1.1663986
1.1663986
1.1663986
1.1663986
1.1663986
1.1663986
1.1663986
1.1663986
1.1663986
1.1663986
1.1663986
1.1701279
1.1670116
1.1720369
1.1682727
1.1693872
1.1693607
1.1694074
1.1691739
1.1689896
1.1695481
1.1697884
1.1694902
1.1686733
1.1675658
1.1668573
1.1665107
1.1664138
1.1663969
1.1663974
1.1663983
1.1663986
1.1663986
1.1663986
1.1663986
1.1663986
1.1663986
1.1663986
1.1663986
1.1663986
1.1663986
1.1663986
1.1663986
1.1663986
1.1663986
1.1663986
1.1663986
1.1663986
1.1663986
1.1663986
1.1663986
1.1663986
1.1663986
1.1663986
1.1663986
1.1663986
1.1663986
1.1663986
1.1663986
1.1663986
1.1663986
1.1663986
1.1663986
1.1663986
1.1663986
1.1663986
1.1663986
1.1663986
1.1663986
1.1663986
1.1663986
1.1663986
1.1663986
1.1663986
1.1663986
1.1663986
1.1663986
1.1663986
1.1663986
1.1663986
1.1663986
1.1663986
1.1663986
1.1663986
1.1663986
1.1663986
1.1663986
1.1663986
1.1663986
1.1663986
1.1663986
1.1717301
1.1660277
1.1740885
1.1684859
1.1699921
1.1702131
1.1701887
1.1698417
1.1695678
1.1702656
1.1706094
1.1703347
1.1693997
1.1680054
1.1670587
1.1665705
1.1664249
1.166397
1.1663969
1.1663981
1.1663986
1.1663986
1.1663986
1.1663986
1.1663986
1.1663986
1.1663986
1.1663986
1.1663986
1.1663986
1.1663986
1.1663986
1.1663986
1.1663986
1.1663986
1.1663986
1.1663986
1.1663986
1.1663986
1.1663986
1.1663986
1.1663986
1.1663986
1.1663986
1.1663986
1.1663986
1.1663986
1.1663986
1.1663986
1.1663986
1.1663986
1.1663986
1.1663986
1.1663986
1.1663986
1.1663986
1.1663986
1.1663986
1.1663986
1.1663986
1.1663986
1.1663986
1.1663986
1.1663986
1.1663986
1.1663986
1.1663986
1.1663986
1.1663986
1.1663986
1.1663986
1.1663986
1.1663986
1.1663986
1.1663986
1.1663986
1.1663986
1.1663986
1.1663986
1.1663986
1.1735189
1.1646907
1.1764975
1.1686233
1.1706021
1.1711497
1.1709671
1.1705808
1.1701893
1.170984
1.1714735
1.1712117
1.1701994
1.1685139
1.167303
1.1666475
1.1664406
1.1663975
1.1663964
1.1663978
1.1663986
1.1663986
1.1663986
1.1663986
1.1663986
1.1663986
1.1663986
1.1663986
1.1663986
1.1663986
1.1663986
1.1663986
1.1663986
1.1663986
1.1663986
1.1663986
1.1663986
1.1663986
1.1663986
1.1663986
1.1663986
1.1663986
1.1663986
1.1663986
1.1663986
1.1663986
1.1663986
1.1663986
1.1663986
1.1663986
1.1663986
1.1663986
1.1663986
1.1663986
1.1663986
1.1663986
1.1663986
1.1663986
1.1663986
1.1663986
1.1663986
1.1663986
1.1663986
1.1663986
1.1663986
1.1663986
1.1663986
1.1663986
1.1663986
1.1663986
1.1663986
1.1663986
1.1663986
1.1663986
1.1663986
1.1663986
1.1663986
1.1663986
1.1663986
1.1663986
1.1755908
1.1628932
1.1792778
1.168711
1.1712446
1.172119
1.1717284
1.1714451
1.1708545
1.1717208
1.1723983
1.1721013
1.1710671
1.1690928
1.1675926
1.1667434
1.1664616
1.1663987
1.1663958
1.1663975
1.1663985
1.1663986
1.1663986
1.1663986
1.1663986
1.1663986
1.1663986
1.1663986
1.1663986
1.1663986
1.1663986
1.1663986
1.1663986
1.1663986
1.1663986
1.1663986
1.1663986
1.1663986
1.1663986
1.1663986
1.1663986
1.1663986
1.1663986
1.1663986
1.1663986
1.1663986
1.1663986
1.1663986
1.1663986
1.1663986
1.1663986
1.1663986
1.1663986
1.1663986
1.1663986
1.1663986
1.1663986
1.1663986
1.1663986
1.1663986
1.1663986
1.1663986
1.1663986
1.1663986
1.1663986
1.1663986
1.1663986
1.1663986
1.1663986
1.1663986
1.1663986
1.1663986
1.1663986
1.1663986
1.1663986
1.1663986
1.1663986
1.1663986
1.1663986
1.1663986
1.177961
1.1606145
1.1824474
1.1687318
1.1718758
1.1732087
1.1724995
1.1724141
1.1715735
1.1724954
1.1732752
1.1730928
1.1720041
1.1697423
1.1679294
1.1668602
1.1664887
1.1664008
1.1663952
1.1663971
1.1663984
1.1663986
1.1663986
1.1663986
1.1663986
1.1663986
1.1663986
1.1663986
1.1663986
1.1663986
1.1663986
1.1663986
1.1663986
1.1663986
1.1663986
1.1663986
1.1663986
1.1663986
1.1663986
1.1663986
1.1663986
1.1663986
1.1663986
1.1663986
1.1663986
1.1663986
1.1663986
1.1663986
1.1663986
1.1663986
1.1663986
1.1663986
1.1663986
1.1663986
1.1663986
1.1663986
1.1663986
1.1663986
1.1663986
1.1663986
1.1663986
1.1663986
1.1663986
1.1663986
1.1663986
1.1663986
1.1663986
1.1663986
1.1663986
1.1663986
1.1663986
1.1663986
1.1663986
1.1663986
1.1663986
1.1663986
1.1663986
1.1663986
1.1663986
1.1663986
1.1807363
1.1577211
1.1861099
1.1686534
1.1725795
1.1744201
1.1732518
1.1734513
1.1723544
1.1732836
1.1741861
1.1741595
1.1730196
1.1704651
1.1683162
1.1669995
1.1665228
1.166404
1.1663946
1.1663967
1.1663984
1.1663986
1.1663987
1.1663986
1.1663986
1.1663986
1.1663986
1.1663986
1.1663986
1.1663986
1.1663986
1.1663986
1.1663986
1.1663986
1.1663986
1.1663986
1.1663986
1.1663986
1.1663986
1.1663986
1.1663986
1.1663986
1.1663986
1.1663986
1.1663986
1.1663986
1.1663986
1.1663986
1.1663986
1.1663986
1.1663986
1.1663986
1.1663986
1.1663986
1.1663986
1.1663986
1.1663986
1.1663986
1.1663986
1.1663986
1.1663986
1.1663986
1.1663986
1.1663986
1.1663986
1.1663986
1.1663986
1.1663986
1.1663986
1.1663986
1.1663986
1.1663986
1.1663986
1.1663986
1.1663986
1.1663986
1.1663986
1.1663986
1.1663986
1.1663986
1.1840588
1.1538733
1.1904966
1.1684753
1.1733338
1.1759083
1.1738151
1.1745825
1.1731947
1.1741046
1.1751141
1.1753323
1.1741106
1.1712652
1.1687569
1.1671634
1.1665648
1.1664086
1.166394
1.1663962
1.1663982
1.1663986
1.1663987
1.1663986
1.1663986
1.1663986
1.1663986
1.1663986
1.1663986
1.1663986
1.1663986
1.1663986
1.1663986
1.1663986
1.1663986
1.1663986
1.1663986
1.1663986
1.1663986
1.1663986
1.1663986
1.1663986
1.1663986
1.1663986
1.1663986
1.1663986
1.1663986
1.1663986
1.1663986
1.1663986
1.1663986
1.1663986
1.1663986
1.1663986
1.1663986
1.1663986
1.1663986
1.1663986
1.1663986
1.1663986
1.1663986
1.1663986
1.1663986
1.1663986
1.1663986
1.1663986
1.1663986
1.1663986
1.1663986
1.1663986
1.1663986
1.1663986
1.1663986
1.1663986
1.1663986
1.1663986
1.1663986
1.1663986
1.1663986
1.1663986
1.1880639
1.1487916
1.1957518
1.1682034
1.1741174
1.1775092
1.1744045
1.1758093
1.174091
1.1749648
1.1760616
1.1766449
1.1752677
1.1721493
1.1692569
1.1673547
1.1666158
1.1664147
1.1663934
1.1663956
1.1663981
1.1663986
1.1663987
1.1663986
1.1663986
1.1663986
1.1663986
1.1663986
1.1663986
1.1663986
1.1663986
1.1663986
1.1663986
1.1663986
1.1663986
1.1663986
1.1663986
1.1663986
1.1663986
1.1663986
1.1663986
1.1663986
1.1663986
1.1663986
1.1663986
1.1663986
1.1663986
1.1663986
1.1663986
1.1663986
1.1663986
1.1663986
1.1663986
1.1663986
1.1663986
1.1663986
1.1663986
1.1663986
1.1663986
1.1663986
1.1663986
1.1663986
1.1663986
1.1663986
1.1663986
1.1663986
1.1663986
1.1663986
1.1663986
1.1663986
1.1663986
1.1663986
1.1663986
1.1663986
1.1663986
1.1663986
1.1663986
1.1663986
1.1663986
1.1663986
1.1926122
1.1426139
1.2018126
1.1678528
1.1749495
1.1792759
1.1749989
1.1771693
1.1750412
1.1758874
1.1770431
1.1780391
1.1765205
1.1731279
1.1698229
1.1675768
1.166677
1.1664227
1.1663929
1.166395
1.1663979
1.1663986
1.1663987
1.1663986
1.1663986
1.1663986
1.1663986
1.1663986
1.1663986
1.1663986
1.1663986
1.1663986
1.1663986
1.1663986
1.1663986
1.1663986
1.1663986
1.1663986
1.1663986
1.1663986
1.1663986
1.1663986
1.1663986
1.1663986
1.1663986
1.1663986
1.1663986
1.1663986
1.1663986
1.1663986
1.1663986
1.1663986
1.1663986
1.1663986
1.1663986
1.1663986
1.1663986
1.1663986
1.1663986
1.1663986
1.1663986
1.1663986
1.1663986
1.1663986
1.1663986
1.1663986
1.1663986
1.1663986
1.1663986
1.1663986
1.1663986
1.1663986
1.1663986
1.1663986
1.1663986
1.1663986
1.1663986
1.1663986
1.1663986
1.1663986
1.1975321
1.1354946
1.2086902
1.1673921
1.1758301
1.1812505
1.1755915
1.1787153
1.176055
1.1768819
1.1780654
1.1795106
1.1778774
1.1742115
1.1704626
1.1678341
1.1667499
1.166433
1.1663924
1.1663944
1.1663977
1.1663986
1.1663987
1.1663986
1.1663986
1.1663986
1.1663986
1.1663986
1.1663986
1.1663986
1.1663986
1.1663986
1.1663986
1.1663986
1.1663986
1.1663986
1.1663986
1.1663986
1.1663986
1.1663986
1.1663986
1.1663986
1.1663986
1.1663986
1.1663986
1.1663986
1.1663986
1.1663986
1.1663986
1.1663986
1.1663986
1.1663986
1.1663986
1.1663986
1.1663986
1.1663986
1.1663986
1.1663986
1.1663986
1.1663986
1.1663986
1.1663986
1.1663986
1.1663986
1.1663986
1.1663986
1.1663986
1.1663986
1.1663986
1.1663986
1.1663986
1.1663986
1.1663986
1.1663986
1.1663986
1.1663986
1.1663986
1.1663986
1.1663986
1.1663986
1.2031651
1.126959
1.2166591
1.1668159
1.1767901
1.183509
1.1761656
1.1805293
1.1771318
1.177977
1.1791455
1.1810674
1.1793455
1.1754097
1.1711845
1.1681312
1.1668365
1.166446
1.1663921
1.1663936
1.1663975
1.1663986
1.1663987
1.1663986
1.1663986
1.1663986
1.1663986
1.1663986
1.1663986
1.1663986
1.1663986
1.1663986
1.1663986
1.1663986
1.1663986
1.1663986
1.1663986
1.1663986
1.1663986
1.1663986
1.1663986
1.1663986
1.1663986
1.1663986
1.1663986
1.1663986
1.1663986
1.1663986
1.1663986
1.1663986
1.1663986
1.1663986
1.1663986
1.1663986
1.1663986
1.1663986
1.1663986
1.1663986
1.1663986
1.1663986
1.1663986
1.1663986
1.1663986
1.1663986
1.1663986
1.1663986
1.1663986
1.1663986
1.1663986
1.1663986
1.1663986
1.1663986
1.1663986
1.1663986
1.1663986
1.1663986
1.1663986
1.1663986
1.1663986
1.1663986
1.2097766
1.1165865
1.225967
1.1661336
1.1778464
1.186136
1.1767106
1.1826591
1.1783165
1.179217
1.1803189
1.1827358
1.1809427
1.1767353
1.1719973
1.1684728
1.1669382
1.1664621
1.166392
1.1663928
1.1663972
1.1663985
1.1663987
1.1663986
1.1663986
1.1663986
1.1663986
1.1663986
1.1663986
1.1663986
1.1663986
1.1663986
1.1663986
1.1663986
1.1663986
1.1663986
1.1663986
1.1663986
1.1663986
1.1663986
1.1663986
1.1663986
1.1663986
1.1663986
1.1663986
1.1663986
1.1663986
1.1663986
1.1663986
1.1663986
1.1663986
1.1663986
1.1663986
1.1663986
1.1663986
1.1663986
1.1663986
1.1663986
1.1663986
1.1663986
1.1663986
1.1663986
1.1663986
1.1663986
1.1663986
1.1663986
1.1663986
1.1663986
1.1663986
1.1663986
1.1663986
1.1663986
1.1663986
1.1663986
1.1663986
1.1663986
1.1663986
1.1663986
1.1663986
1.1663986
1.2173049
1.1044342
1.2366268
1.1653402
1.1791281
1.1891923
1.1773081
1.1851263
1.1796339
1.1806299
1.1816295
1.184567
1.1827164
1.1782135
1.1729115
1.1688626
1.1670561
1.1664815
1.1663921
1.1663919
1.1663968
1.1663985
1.1663987
1.1663987
1.1663986
1.1663986
1.1663986
1.1663986
1.1663986
1.1663986
1.1663986
1.1663986
1.1663986
1.1663986
1.1663986
1.1663986
1.1663986
1.1663986
1.1663986
1.1663986
1.1663986
1.1663986
1.1663986
1.1663986
1.1663986
1.1663986
1.1663986
1.1663986
1.1663986
1.1663986
1.1663986
1.1663986
1.1663986
1.1663986
1.1663986
1.1663986
1.1663986
1.1663986
1.1663986
1.1663986
1.1663986
1.1663986
1.1663986
1.1663986
1.1663986
1.1663986
1.1663986
1.1663986
1.1663986
1.1663986
1.1663986
1.1663986
1.1663986
1.1663986
1.1663986
1.1663986
1.1663986
1.1663986
1.1663986
1.1663986
1.2261534
1.0902878
1.2488977
1.164518
1.1804916
1.1927595
1.1778657
1.1879029
1.1810317
1.1821876
1.1830716
1.1865989
1.1847131
1.1798725
1.1739368
1.1693025
1.1671899
1.1665039
1.1663924
1.1663909
1.1663965
1.1663984
1.1663987
1.1663987
1.1663986
1.1663986
1.1663986
1.1663986
1.1663986
1.1663986
1.1663986
1.1663986
1.1663986
1.1663986
1.1663986
1.1663986
1.1663986
1.1663986
1.1663986
1.1663986
1.1663986
1.1663986
1.1663986
1.1663986
1.1663986
1.1663986
1.1663986
1.1663986
1.1663986
1.1663986
1.1663986
1.1663986
1.1663986
1.1663986
1.1663986
1.1663986
1.1663986
1.1663986
1.1663986
1.1663986
1.1663986
1.1663986
1.1663986
1.1663986
1.1663986
1.1663986
1.1663986
1.1663986
1.1663986
1.1663986
1.1663986
1.1663986
1.1663986
1.1663986
1.1663986
1.1663986
1.1663986
1.1663986
1.1663986
1.1663986
1.2367377
1.0729024
1.2626644
1.163789
1.1820043
1.1970269
1.1784208
1.1910251
1.1825085
1.1838241
1.1845896
1.1887984
1.1869079
1.1816966
1.1750607
1.169785
1.1673363
1.1665286
1.1663928
1.1663899
1.1663961
1.1663984
1.1663987
1.1663987
1.1663986
1.1663986
1.1663986
1.1663986
1.1663986
1.1663986
1.1663986
1.1663986
1.1663986
1.1663986
1.1663986
1.1663986
1.1663986
1.1663986
1.1663986
1.1663986
1.1663986
1.1663986
1.1663986
1.1663986
1.1663986
1.1663986
1.1663986
1.1663986
1.1663986
1.1663986
1.1663986
1.1663986
1.1663986
1.1663986
1.1663986
1.1663986
1.1663986
1.1663986
1.1663986
1.1663986
1.1663986
1.1663986
1.1663986
1.1663986
1.1663986
1.1663986
1.1663986
1.1663986
1.1663986
1.1663986
1.1663986
1.1663986
1.1663986
1.1663986
1.1663986
1.1663986
1.1663986
1.1663986
1.1663986
1.1663986
1.2507009
1.0481118
1.2805933
1.163015
1.1839176
1.201755
1.1786391
1.1942326
1.1839392
1.1855572
1.1862118
1.1910947
1.1891554
1.1835772
1.1762166
1.1702806
1.1674855
1.1665535
1.1663932
1.1663888
1.1663957
1.1663983
1.1663987
1.1663987
1.1663986
1.1663986
1.1663986
1.1663986
1.1663986
1.1663986
1.1663986
1.1663986
1.1663986
1.1663986
1.1663986
1.1663986
1.1663986
1.1663986
1.1663986
1.1663986
1.1663986
1.1663986
1.1663986
1.1663986
1.1663986
1.1663986
1.1663986
1.1663986
1.1663986
1.1663986
1.1663986
1.1663986
1.1663986
1.1663986
1.1663986
1.1663986
1.1663986
1.1663986
1.1663986
1.1663986
1.1663986
1.1663986
1.1663986
1.1663986
1.1663986
1.1663986
1.1663986
1.1663986
1.1663986
1.1663986
1.1663986
1.1663986
1.1663986
1.1663986
1.1663986
1.1663986
1.1663986
1.1663986
1.1663986
1.1663986
1.2645781
1.0156452
1.302032
1.1618923
1.1847646
1.2073046
1.1777481
1.1981057
1.1851734
1.1877446
1.1880222
1.1933692
1.1912506
1.1853285
1.1772869
1.1707291
1.1676183
1.1665747
1.1663932
1.1663878
1.1663954
1.1663983
1.1663987
1.1663987
1.1663986
1.1663986
1.1663986
1.1663986
1.1663986
1.1663986
1.1663986
1.1663986
1.1663986
1.1663986
1.1663986
1.1663986
1.1663986
1.1663986
1.1663986
1.1663986
1.1663986
1.1663986
1.1663986
1.1663986
1.1663986
1.1663986
1.1663986
1.1663986
1.1663986
1.1663986
1.1663986
1.1663986
1.1663986
1.1663986
1.1663986
1.1663986
1.1663986
1.1663986
1.1663986
1.1663986
1.1663986
1.1663986
1.1663986
1.1663986
1.1663986
1.1663986
1.1663986
1.1663986
1.1663986
1.1663986
1.1663986
1.1663986
1.1663986
1.1663986
1.1663986
1.1663986
1.1663986
1.1663986
1.1663986
1.1663986
1.2788108
0.98146498
1.3216506
1.1612859
1.1847925
1.2131473
1.1767937
1.2021014
1.1861376
1.189869
1.1898154
1.1953261
1.1931025
1.1867843
1.1781283
1.1710537
1.1677064
1.1665862
1.1663925
1.166387
1.1663952
1.1663983
1.1663987
1.1663987
1.1663986
1.1663986
1.1663986
1.1663986
1.1663986
1.1663986
1.1663986
1.1663986
1.1663986
1.1663986
1.1663986
1.1663986
1.1663986
1.1663986
1.1663986
1.1663986
1.1663986
1.1663986
1.1663986
1.1663986
1.1663986
1.1663986
1.1663986
1.1663986
1.1663986
1.1663986
1.1663986
1.1663986
1.1663986
1.1663986
1.1663986
1.1663986
1.1663986
1.1663986
1.1663986
1.1663986
1.1663986
1.1663986
1.1663986
1.1663986
1.1663986
1.1663986
1.1663986
1.1663986
1.1663986
1.1663986
1.1663986
1.1663986
1.1663986
1.1663986
1.1663986
1.1663986
1.1663986
1.1663986
1.1663986
1.1663986
1.2911154
0.9515214
1.3370711
1.1612573
1.184463
1.2189988
1.1757199
1.2051693
1.1865659
1.19149
1.1915133
1.1966784
1.1947178
1.1877934
1.1785971
1.1711771
1.1677224
1.1665822
1.1663908
1.1663865
1.1663952
1.1663983
1.1663987
1.1663987
1.1663986
1.1663986
1.1663986
1.1663986
1.1663986
1.1663986
1.1663986
1.1663986
1.1663986
1.1663986
1.1663986
1.1663986
1.1663986
1.1663986
1.1663986
1.1663986
1.1663986
1.1663986
1.1663986
1.1663986
1.1663986
1.1663986
1.1663986
1.1663986
1.1663986
1.1663986
1.1663986
1.1663986
1.1663986
1.1663986
1.1663986
1.1663986
1.1663986
1.1663986
1.1663986
1.1663986
1.1663986
1.1663986
1.1663986
1.1663986
1.1663986
1.1663986
1.1663986
1.1663986
1.1663986
1.1663986
1.1663986
1.1663986
1.1663986
1.1663986
1.1663986
1.1663986
1.1663986
1.1663986
1.1663986
1.1663986
1.2941505
0.93291118
1.3498756
1.1569721
1.1833249
1.2236166
1.1741577
1.2065532
1.1865203
1.192352
1.1925492
1.1976609
1.1960689
1.1882353
1.1785807
1.1710511
1.1676527
1.1665613
1.1663883
1.1663866
1.1663954
1.1663984
1.1663987
1.1663987
1.1663986
1.1663986
1.1663986
1.1663986
1.1663986
1.1663986
1.1663986
1.1663986
1.1663986
1.1663986
1.1663986
1.1663986
1.1663986
1.1663986
1.1663986
1.1663986
1.1663986
1.1663986
1.1663986
1.1663986
1.1663986
1.1663986
1.1663986
1.1663986
1.1663986
1.1663986
1.1663986
1.1663986
1.1663986
1.1663986
1.1663986
1.1663986
1.1663986
1.1663986
1.1663986
1.1663986
1.1663986
1.1663986
1.1663986
1.1663986
1.1663986
1.1663986
1.1663986
1.1663986
1.1663986
1.1663986
1.1663986
1.1663986
1.1663986
1.1663986
1.1663986
1.1663986
1.1663986
1.1663986
1.1663986
1.1663986
1.3006639
0.9057772
1.3640869
1.1534143
1.1796149
1.2274274
1.1723888
1.2051326
1.1867584
1.1925228
1.1927327
1.198761
1.1966463
1.1880339
1.1780814
1.1706944
1.1675102
1.1665281
1.1663856
1.1663871
1.1663958
1.1663984
1.1663987
1.1663987
1.1663986
1.1663986
1.1663986
1.1663986
1.1663986
1.1663986
1.1663986
1.1663986
1.1663986
1.1663986
1.1663986
1.1663986
1.1663986
1.1663986
1.1663986
1.1663986
1.1663986
1.1663986
1.1663986
1.1663986
1.1663986
1.1663986
1.1663986
1.1663986
1.1663986
1.1663986
1.1663986
1.1663986
1.1663986
1.1663986
1.1663986
1.1663986
1.1663986
1.1663986
1.1663986
1.1663986
1.1663986
1.1663986
1.1663986
1.1663986
1.1663986
1.1663986
1.1663986
1.1663986
1.1663986
1.1663986
1.1663986
1.1663986
1.1663986
1.1663986
1.1663986
1.1663986
1.1663986
1.1663986
1.1663986
1.1663986
1.3201588
0.85980926
1.3694362
1.1598761
1.1728696
1.2289195
1.1718877
1.2010736
1.1865903
1.1924364
1.1927462
1.1993244
1.1965739
1.1872298
1.1772246
1.1701987
1.1673309
1.1664911
1.1663835
1.1663881
1.1663964
1.1663985
1.1663987
1.1663987
1.1663986
1.1663986
1.1663986
1.1663986
1.1663986
1.1663986
1.1663986
1.1663986
1.1663986
1.1663986
1.1663986
1.1663986
1.1663986
1.1663986
1.1663986
1.1663986
1.1663986
1.1663986
1.1663986
1.1663986
1.1663986
1.1663986
1.1663986
1.1663986
1.1663986
1.1663986
1.1663986
1.1663986
1.1663986
1.1663986
1.1663986
1.1663986
1.1663986
1.1663986
1.1663986
1.1663986
1.1663986
1.1663986
1.1663986
1.1663986
1.1663986
1.1663986
1.1663986
1.1663986
1.1663986
1.1663986
1.1663986
1.1663986
1.1663986
1.1663986
1.1663986
1.1663986
1.1663986
1.1663986
1.1663986
1.1663986
1.331231
0.83829388
1.3557198
1.1716839
1.1636625
1.2264932
1.1738313
1.1968347
1.1853442
1.192119
1.193004
1.1994039
1.1960813
1.1861189
1.1762601
1.169702
1.167163
1.1664604
1.1663827
1.1663892
1.1663969
1.1663986
1.1663987
1.1663987
1.1663986
1.1663986
1.1663986
1.1663986
1.1663986
1.1663986
1.1663986
1.1663986
1.1663986
1.1663986
1.1663986
1.1663986
1.1663986
1.1663986
1.1663986
1.1663986
1.1663986
1.1663986
1.1663986
1.1663986
1.1663986
1.1663986
1.1663986
1.1663986
1.1663986
1.1663986
1.1663986
1.1663986
1.1663986
1.1663986
1.1663986
1.1663986
1.1663986
1.1663986
1.1663986
1.1663986
1.1663986
1.1663986
1.1663986
1.1663986
1.1663986
1.1663986
1.1663986
1.1663986
1.1663986
1.1663986
1.1663986
1.1663986
1.1663986
1.1663986
1.1663986
1.1663986
1.1663986
1.1663986
1.1663986
1.1663986
1.3090257
0.88139629
1.336878
1.1683491
1.1623682
1.2139518
1.177729
1.1943319
1.1846509
1.1915619
1.1935962
1.1991407
1.195572
1.1851166
1.1755155
1.1693484
1.1670512
1.1664422
1.1663826
1.1663901
1.1663972
1.1663986
1.1663987
1.1663987
1.1663986
1.1663986
1.1663986
1.1663986
1.1663986
1.1663986
1.1663986
1.1663986
1.1663986
1.1663986
1.1663986
1.1663986
1.1663986
1.1663986
1.1663986
1.1663986
1.1663986
1.1663986
1.1663986
1.1663986
1.1663986
1.1663986
1.1663986
1.1663986
1.1663986
1.1663986
1.1663986
1.1663986
1.1663986
1.1663986
1.1663986
1.1663986
1.1663986
1.1663986
1.1663986
1.1663986
1.1663986
1.1663986
1.1663986
1.1663986
1.1663986
1.1663986
1.1663986
1.1663986
1.1663986
1.1663986
1.1663986
1.1663986
1.1663986
1.1663986
1.1663986
1.1663986
1.1663986
1.1663986
1.1663986
1.1663986
1.2861869
0.95340511
1.3118829
1.1675515
1.1671625
1.2051005
1.1807965
1.1918824
1.1843411
1.1911698
1.1942748
1.1986373
1.1954133
1.1846836
1.1752944
1.1692585
1.1670284
1.1664395
1.1663828
1.1663903
1.1663972
1.1663986
1.1663987
1.1663987
1.1663986
1.1663986
1.1663986
1.1663986
1.1663986
1.1663986
1.1663986
1.1663986
1.1663986
1.1663986
1.1663986
1.1663986
1.1663986
1.1663986
1.1663986
1.1663986
1.1663986
1.1663986
1.1663986
1.1663986
1.1663986
1.1663986
1.1663986
1.1663986
1.1663986
1.1663986
1.1663986
1.1663986
1.1663986
1.1663986
1.1663986
1.1663986
1.1663986
1.1663986
1.1663986
1.1663986
1.1663986
1.1663986
1.1663986
1.1663986
1.1663986
1.1663986
1.1663986
1.1663986
1.1663986
1.1663986
1.1663986
1.1663986
1.1663986
1.1663986
1.1663986
1.1663986
1.1663986
1.1663986
1.1663986
1.1663986
1.2782076
0.97169064
1.3012916
1.170683
1.169412
1.2019698
1.1819347
1.190419
1.1842032
1.1907806
1.194347
1.198202
1.1958819
1.1853452
1.1759454
1.1696157
1.1671585
1.166467
1.1663843
1.1663895
1.1663968
1.1663985
1.1663987
1.1663987
1.1663986
1.1663986
1.1663986
1.1663986
1.1663986
1.1663986
1.1663986
1.1663986
1.1663986
1.1663986
1.1663986
1.1663986
1.1663986
1.1663986
1.1663986
1.1663986
1.1663986
1.1663986
1.1663986
1.1663986
1.1663986
1.1663986
1.1663986
1.1663986
1.1663986
1.1663986
1.1663986
1.1663986
1.1663986
1.1663986
1.1663986
1.1663986
1.1663986
1.1663986
1.1663986
1.1663986
1.1663986
1.1663986
1.1663986
1.1663986
1.1663986
1.1663986
1.1663986
1.1663986
1.1663986
1.1663986
1.1663986
1.1663986
1.1663986
1.1663986
1.1663986
1.1663986
1.1663986
1.1663986
1.1663986
1.1663986
1.1383897
1.1913838
1.1456792
1.1609142
1.1613897
1.157403
1.1606946
1.160106
1.1597895
1.1574774
1.1580935
1.1602943
1.1629925
1.1651707
1.1660737
1.1663635
1.1664025
1.1664023
1.1663995
1.1663987
1.1663986
1.1663986
1.1663986
1.1663986
1.1663986
1.1663986
1.1663986
1.1663986
1.1663986
1.1663986
1.1663986
1.1663986
1.1663986
1.1663986
1.1663986
1.1663986
1.1663986
1.1663986
1.1663986
1.1663986
1.1663986
1.1663986
1.1663986
1.1663986
1.1663986
1.1663986
1.1663986
1.1663986
1.1663986
1.1663986
1.1663986
1.1663986
1.1663986
1.1663986
1.1663986
1.1663986
1.1663986
1.1663986
1.1663986
1.1663986
1.1663986
1.1663986
1.1663986
1.1663986
1.1663986
1.1663986
1.1663986
1.1663986
1.1663986
1.1663986
1.1663986
1.1663986
1.1663986
1.1663986
1.1663986
1.1663986
1.1663986
1.1663986
1.1663986
1.1663986
1.1379662
1.1916784
1.1448191
1.1610017
1.1616809
1.157614
1.1604248
1.1594758
1.1591385
1.1571122
1.1574923
1.1600147
1.1627093
1.1649865
1.1660018
1.1663487
1.1664018
1.1664029
1.1663997
1.1663988
1.1663986
1.1663986
1.1663986
1.1663986
1.1663986
1.1663986
1.1663986
1.1663986
1.1663986
1.1663986
1.1663986
1.1663986
1.1663986
1.1663986
1.1663986
1.1663986
1.1663986
1.1663986
1.1663986
1.1663986
1.1663986
1.1663986
1.1663986
1.1663986
1.1663986
1.1663986
1.1663986
1.1663986
1.1663986
1.1663986
1.1663986
1.1663986
1.1663986
1.1663986
1.1663986
1.1663986
1.1663986
1.1663986
1.1663986
1.1663986
1.1663986
1.1663986
1.1663986
1.1663986
1.1663986
1.1663986
1.1663986
1.1663986
1.1663986
1.1663986
1.1663986
1.1663986
1.1663986
1.1663986
1.1663986
1.1663986
1.1663986
1.1663986
1.1663986
1.1663986
1.1380962
1.1895994
1.1447131
1.1598799
1.1606944
1.156696
1.1600189
1.1586283
1.158674
1.156916
1.1573972
1.1600779
1.1627607
1.1650016
1.1660027
1.1663473
1.1664014
1.1664028
1.1663998
1.1663988
1.1663986
1.1663986
1.1663986
1.1663986
1.1663986
1.1663986
1.1663986
1.1663986
1.1663986
1.1663986
1.1663986
1.1663986
1.1663986
1.1663986
1.1663986
1.1663986
1.1663986
1.1663986
1.1663986
1.1663986
1.1663986
1.1663986
1.1663986
1.1663986
1.1663986
1.1663986
1.1663986
1.1663986
1.1663986
1.1663986
1.1663986
1.1663986
1.1663986
1.1663986
1.1663986
1.1663986
1.1663986
1.1663986
1.1663986
1.1663986
1.1663986
1.1663986
1.1663986
1.1663986
1.1663986
1.1663986
1.1663986
1.1663986
1.1663986
1.1663986
1.1663986
1.1663986
1.1663986
1.1663986
1.1663986
1.1663986
1.1663986
1.1663986
1.1663986
1.1663986
1.1388891
1.1887649
1.1451587
1.160026
1.1608874
1.1568799
1.1601146
1.158821
1.1589184
1.1571678
1.1576374
1.1602235
1.162837
1.1650257
1.1660082
1.1663474
1.1664012
1.1664027
1.1663997
1.1663988
1.1663986
1.1663986
1.1663986
1.1663986
1.1663986
1.1663986
1.1663986
1.1663986
1.1663986
1.1663986
1.1663986
1.1663986
1.1663986
1.1663986
1.1663986
1.1663986
1.1663986
1.1663986
1.1663986
1.1663986
1.1663986
1.1663986
1.1663986
1.1663986
1.1663986
1.1663986
1.1663986
1.1663986
1.1663986
1.1663986
1.1663986
1.1663986
1.1663986
1.1663986
1.1663986
1.1663986
1.1663986
1.1663986
1.1663986
1.1663986
1.1663986
1.1663986
1.1663986
1.1663986
1.1663986
1.1663986
1.1663986
1.1663986
1.1663986
1.1663986
1.1663986
1.1663986
1.1663986
1.1663986
1.1663986
1.1663986
1.1663986
1.1663986
1.1663986
1.1663986
1.1396473
1.1881067
1.1457077
1.1601894
1.1610186
1.1571122
1.1602588
1.1590361
1.1591425
1.1574362
1.1578724
1.1603729
1.1629109
1.1650489
1.1660131
1.1663475
1.166401
1.1664026
1.1663997
1.1663988
1.1663986
1.1663986
1.1663986
1.1663986
1.1663986
1.1663986
1.1663986
1.1663986
1.1663986
1.1663986
1.1663986
1.1663986
1.1663986
1.1663986
1.1663986
1.1663986
1.1663986
1.1663986
1.1663986
1.1663986
1.1663986
1.1663986
1.1663986
1.1663986
1.1663986
1.1663986
1.1663986
1.1663986
1.1663986
1.1663986
1.1663986
1.1663986
1.1663986
1.1663986
1.1663986
1.1663986
1.1663986
1.1663986
1.1663986
1.1663986
1.1663986
1.1663986
1.1663986
1.1663986
1.1663986
1.1663986
1.1663986
1.1663986
1.1663986
1.1663986
1.1663986
1.1663986
1.1663986
1.1663986
1.1663986
1.1663986
1.1663986
1.1663986
1.1663986
1.1663986
1.1404083
1.1874945
1.1462875
1.1603786
1.1611837
1.1573605
1.1604194
1.1592504
1.1593613
1.1576926
1.1580939
1.1605155
1.1629812
1.165071
1.1660177
1.1663475
1.1664008
1.1664025
1.1663997
1.1663988
1.1663986
1.1663986
1.1663986
1.1663986
1.1663986
1.1663986
1.1663986
1.1663986
1.1663986
1.1663986
1.1663986
1.1663986
1.1663986
1.1663986
1.1663986
1.1663986
1.1663986
1.1663986
1.1663986
1.1663986
1.1663986
1.1663986
1.1663986
1.1663986
1.1663986
1.1663986
1.1663986
1.1663986
1.1663986
1.1663986
1.1663986
1.1663986
1.1663986
1.1663986
1.1663986
1.1663986
1.1663986
1.1663986
1.1663986
1.1663986
1.1663986
1.1663986
1.1663986
1.1663986
1.1663986
1.1663986
1.1663986
1.1663986
1.1663986
1.1663986
1.1663986
1.1663986
1.1663986
1.1663986
1.1663986
1.1663986
1.1663986
1.1663986
1.1663986
1.1663986
1.1411427
1.1869066
1.1468409
1.1605538
1.1613387
1.1575978
1.1605722
1.1594542
1.1595704
1.1579396
1.158309
1.1606548
1.1630504
1.165093
1.1660223
1.1663475
1.1664006
1.1664024
1.1663997
1.1663988
1.1663986
1.1663986
1.1663986
1.1663986
1.1663986
1.1663986
1.1663986
1.1663986
1.1663986
1.1663986
1.1663986
1.1663986
1.1663986
1.1663986
1.1663986
1.1663986