/*--------------------------------*- C++ -*----------------------------------*\
| =========                 |                                                 |
| \\      /  F ield         | OpenFOAM: The Open Source CFD Toolbox           |
|  \\    /   O peration     | Version:  2406                                  |
|   \\  /    A nd           | Website:  www.openfoam.com                      |
|    \\/     M anipulation  |                                                 |
\*---------------------------------------------------------------------------*/
FoamFile
{
    version     2.0;
    format      ascii;
    arch        "LSB;label=32;scalar=64";
    class       volScalarField;
    location    "0.0001";
    object      T;
}
// * * * * * * * * * * * * * * * * * * * * * * * * * * * * * * * * * * * * * //

dimensions      [0 0 0 1 0 0 0];

internalField   nonuniform List<scalar> 
16000
(
298.61466
297.33398
298.2827
297.99312
298.08424
298.0372
298.06529
298.03778
298.05733
298.0582
298.06955
298.05294
298.03375
298.01286
298.00334
297.99986
297.99983
297.99992
297.99999
298
298
298
298
298
298
298
298
298
298
298
298
298
298
298
298
298
298
298
298
298
298
298
298
298
298
298
298
298
298
298
298
298
298
298
298
298
298
298
298
298
298
298
298
298
298
298
298
298
298
298
298
298
298
298
298
298
298
298
298
298
298.47065
297.81636
298.26975
298.16273
298.18186
298.17274
298.18738
298.16132
298.17787
298.19639
298.21656
298.17633
298.11572
298.04904
298.01579
298.00261
298.00008
297.99985
297.99995
297.99999
298
298
298
298
298
298
298
298
298
298
298
298
298
298
298
298
298
298
298
298
298
298
298
298
298
298
298
298
298
298
298
298
298
298
298
298
298
298
298
298
298
298
298
298
298
298
298
298
298
298
298
298
298
298
298
298
298
298
298
298
298.42955
298.24358
298.17846
298.42055
298.2667
298.34001
298.31178
298.29608
298.29496
298.34165
298.3702
298.31416
298.21406
298.09902
298.03492
298.00716
298.00064
297.99978
297.99989
297.99998
298
298
298
298
298
298
298
298
298
298
298
298
298
298
298
298
298
298
298
298
298
298
298
298
298
298
298
298
298
298
298
298
298
298
298
298
298
298
298
298
298
298
298
298
298
298
298
298
298
298
298
298
298
298
298
298
298
298
298
298
298.34011
298.76608
298.01613
298.73696
298.31878
298.52579
298.44179
298.43615
298.40746
298.48877
298.52804
298.46705
298.33084
298.16174
298.06039
298.01364
298.00156
297.9997
297.99982
297.99996
298
298
298
298
298
298
298
298
298
298
298
298
298
298
298
298
298
298
298
298
298
298
298
298
298
298
298
298
298
298
298
298
298
298
298
298
298
298
298
298
298
298
298
298
298
298
298
298
298
298
298
298
298
298
298
298
298
298
298
298
298.2401
299.35522
297.81904
299.08173
298.32433
298.73664
298.55716
298.59616
298.51367
298.64392
298.68906
298.63166
298.46372
298.23773
298.09331
298.02272
298.00305
297.99965
297.99974
297.99992
298
298
298
298
298
298
298
298
298
298
298
298
298
298
298
298
298
298
298
298
298
298
298
298
298
298
298
298
298
298
298
298
298
298
298
298
298
298
298
298
298
298
298
298
298
298
298
298
298
298
298
298
298
298
298
298
298
298
298
298
298.09612
300.07529
297.53361
299.46406
298.33709
298.94626
298.695
298.75299
298.60956
298.8098
298.8545
298.80667
298.61241
298.32761
298.13448
298.03489
298.00531
297.99965
297.99965
297.99988
297.99999
298
298
298
298
298
298
298
298
298
298
298
298
298
298
298
298
298
298
298
298
298
298
298
298
298
298
298
298
298
298
298
298
298
298
298
298
298
298
298
298
298
298
298
298
298
298
298
298
298
298
298
298
298
298
298
298
298
298
298
297.90192
300.93767
297.149
299.90605
298.34804
299.16158
298.84589
298.90961
298.71561
298.97769
299.0251
298.99199
298.77622
298.43166
298.18449
298.0506
298.00849
297.99976
297.99954
297.99983
297.99998
298
298
298
298
298
298
298
298
298
298
298
298
298
298
298
298
298
298
298
298
298
298
298
298
298
298
298
298
298
298
298
298
298
298
298
298
298
298
298
298
298
298
298
298
298
298
298
298
298
298
298
298
298
298
298
298
298
298
298
297.627
301.99019
296.65367
300.42368
298.34847
299.38796
299.0054
299.05981
298.85885
299.13034
299.20506
299.18753
298.95398
298.5502
298.24385
298.07023
298.01277
298
297.99942
297.99976
297.99997
298
298
298
298
298
298
298
298
298
298
298
298
298
298
298
298
298
298
298
298
298
298
298
298
298
298
298
298
298
298
298
298
298
298
298
298
298
298
298
298
298
298
298
298
298
298
298
298
298
298
298
298
298
298
298
298
298
298
298
297.28472
303.23301
296.05139
301.00461
298.35575
299.6189
299.16756
299.23704
299.01601
299.26678
299.39535
299.39876
299.14622
298.6833
298.31302
298.09416
298.01831
298.00042
297.9993
297.99969
297.99996
298
298
298
298
298
298
298
298
298
298
298
298
298
298
298
298
298
298
298
298
298
298
298
298
298
298
298
298
298
298
298
298
298
298
298
298
298
298
298
298
298
298
298
298
298
298
298
298
298
298
298
298
298
298
298
298
298
298
298
296.87698
304.71513
295.31105
301.66586
298.37437
299.85951
299.32862
299.44449
299.18099
299.40144
299.58592
299.6279
299.35505
298.83151
298.39253
298.12279
298.02528
298.00107
297.99917
297.9996
297.99994
298
298
298
298
298
298
298
298
298
298
298
298
298
298
298
298
298
298
298
298
298
298
298
298
298
298
298
298
298
298
298
298
298
298
298
298
298
298
298
298
298
298
298
298
298
298
298
298
298
298
298
298
298
298
298
298
298
298
298
296.34054
306.58194
294.35422
302.46034
298.3889
300.11809
299.48632
299.66675
299.35664
299.55086
299.77468
299.87473
299.58091
298.99564
298.48329
298.15655
298.0339
298.00199
297.99904
297.9995
297.99992
298
298
298
298
298
298
298
298
298
298
298
298
298
298
298
298
298
298
298
298
298
298
298
298
298
298
298
298
298
298
298
298
298
298
298
298
298
298
298
298
298
298
298
298
298
298
298
298
298
298
298
298
298
298
298
298
298
298
298
295.62266
308.97364
293.12936
303.42823
298.38235
300.38859
299.65561
299.90545
299.54465
299.7199
299.96017
300.14176
299.82469
299.17707
298.58637
298.19604
298.04439
298.00325
297.99892
297.99938
297.99989
298
298
298
298
298
298
298
298
298
298
298
298
298
298
298
298
298
298
298
298
298
298
298
298
298
298
298
298
298
298
298
298
298
298
298
298
298
298
298
298
298
298
298
298
298
298
298
298
298
298
298
298
298
298
298
298
298
298
298
294.7641
311.87479
291.66215
304.57948
298.35328
300.68455
299.83711
300.16455
299.74639
299.90075
300.15389
300.42259
300.08937
299.37795
298.70321
298.24201
298.05703
298.0049
297.9988
297.99926
297.99985
297.99999
298
298
298
298
298
298
298
298
298
298
298
298
298
298
298
298
298
298
298
298
298
298
298
298
298
298
298
298
298
298
298
298
298
298
298
298
298
298
298
298
298
298
298
298
298
298
298
298
298
298
298
298
298
298
298
298
298
298
293.79979
315.28257
289.97048
305.92942
298.30159
301.01127
300.03429
300.4494
299.9652
300.09394
300.35774
300.71769
300.37619
299.60055
298.83546
298.29541
298.07215
298.00703
297.99871
297.99912
297.99981
297.99999
298
298
298
298
298
298
298
298
298
298
298
298
298
298
298
298
298
298
298
298
298
298
298
298
298
298
298
298
298
298
298
298
298
298
298
298
298
298
298
298
298
298
298
298
298
298
298
298
298
298
298
298
298
298
298
298
298
298
292.64613
319.48144
287.96499
307.56014
298.22277
301.37304
300.25277
300.76838
300.20547
300.30497
300.57443
301.0294
300.6863
299.84686
298.98492
298.35728
298.09014
298.00972
297.99865
297.99896
297.99976
297.99998
298
298
298
298
298
298
298
298
298
298
298
298
298
298
298
298
298
298
298
298
298
298
298
298
298
298
298
298
298
298
298
298
298
298
298
298
298
298
298
298
298
298
298
298
298
298
298
298
298
298
298
298
298
298
298
298
298
298
291.24712
324.80834
285.5642
309.55671
298.10757
301.78505
300.49929
301.12526
300.47793
300.54205
300.8108
301.36338
301.0229
300.11963
299.15348
298.42863
298.11139
298.01307
297.99863
297.99879
297.9997
297.99998
298.00001
298
298
298
298
298
298
298
298
298
298
298
298
298
298
298
298
298
298
298
298
298
298
298
298
298
298
298
298
298
298
298
298
298
298
298
298
298
298
298
298
298
298
298
298
298
298
298
298
298
298
298
298
298
298
298
298
298
289.63644
331.43107
282.77618
312.00433
297.94034
302.27239
300.78871
301.52035
300.78903
300.8099
301.07505
301.73001
301.39504
300.42402
299.34339
298.51039
298.13616
298.01714
297.99865
297.9986
297.99963
297.99997
298.00001
298
298
298
298
298
298
298
298
298
298
298
298
298
298
298
298
298
298
298
298
298
298
298
298
298
298
298
298
298
298
298
298
298
298
298
298
298
298
298
298
298
298
298
298
298
298
298
298
298
298
298
298
298
298
298
298
298
287.80529
339.8149
279.5426
314.98449
297.72447
302.83771
301.10904
301.95087
301.12862
301.10323
301.36528
302.13571
301.81298
300.76603
299.55675
298.60309
298.16445
298.02189
297.99871
297.9984
297.99955
297.99996
298.00001
298
298
298
298
298
298
298
298
298
298
298
298
298
298
298
298
298
298
298
298
298
298
298
298
298
298
298
298
298
298
298
298
298
298
298
298
298
298
298
298
298
298
298
298
298
298
298
298
298
298
298
298
298
298
298
298
298
285.50679
350.6816
275.73131
318.63375
297.48209
303.47293
301.48505
302.42537
301.49076
301.40975
301.67205
302.57419
302.27239
301.14269
299.79159
298.70559
298.19563
298.02716
297.9988
297.99817
297.99946
297.99995
298.00001
298
298
298
298
298
298
298
298
298
298
298
298
298
298
298
298
298
298
298
298
298
298
298
298
298
298
298
298
298
298
298
298
298
298
298
298
298
298
298
298
298
298
298
298
298
298
298
298
298
298
298
298
298
298
298
298
298
282.29123
367.42841
270.40551
323.89895
297.08406
304.25151
301.8404
302.88549
301.84988
301.73546
302.0038
303.03567
302.74443
301.53312
300.0357
298.81185
298.22775
298.03255
297.99888
297.99794
297.99938
297.99994
298.00001
298
298
298
298
298
298
298
298
298
298
298
298
298
298
298
298
298
298
298
298
298
298
298
298
298
298
298
298
298
298
298
298
298
298
298
298
298
298
298
298
298
298
298
298
298
298
298
298
298
298
298
298
298
298
298
298
298
278.54981
391.6971
263.77023
330.64779
296.30928
304.91276
302.2883
303.28362
302.25845
302.13309
302.38256
303.50224
303.18818
301.90138
300.26489
298.90967
298.25689
298.03725
297.99891
297.99772
297.99931
297.99993
298.00001
298
298
298
298
298
298
298
298
298
298
298
298
298
298
298
298
298
298
298
298
298
298
298
298
298
298
298
298
298
298
298
298
298
298
298
298
298
298
298
298
298
298
298
298
298
298
298
298
298
298
298
298
298
298
298
298
298
274.48202
420.39497
257.35113
337.45841
295.43363
305.64599
302.75075
303.70008
302.62321
302.52469
302.7793
303.93464
303.57649
302.21336
300.45003
298.98312
298.2771
298.03996
297.99878
297.99754
297.99926
297.99993
298.00001
298
298
298
298
298
298
298
298
298
298
298
298
298
298
298
298
298
298
298
298
298
298
298
298
298
298
298
298
298
298
298
298
298
298
298
298
298
298
298
298
298
298
298
298
298
298
298
298
298
298
298
298
298
298
298
298
298
271.09795
450.03622
251.58205
344.16503
294.35527
306.52549
303.01135
304.10335
302.79901
302.85125
303.17063
304.29576
303.89365
302.43962
300.56173
299.01552
298.28235
298.03946
297.99844
297.99744
297.99926
297.99993
298.00001
298
298
298
298
298
298
298
298
298
298
298
298
298
298
298
298
298
298
298
298
298
298
298
298
298
298
298
298
298
298
298
298
298
298
298
298
298
298
298
298
298
298
298
298
298
298
298
298
298
298
298
298
298
298
298
298
298
269.59146
470.05506
247.25544
350.49924
293.04129
307.28282
302.92522
304.42182
302.71979
303.21232
303.38104
304.56897
304.14865
302.55494
300.57515
298.99599
298.26953
298.03535
297.9979
297.99743
297.9993
297.99994
298.00001
298
298
298
298
298
298
298
298
298
298
298
298
298
298
298
298
298
298
298
298
298
298
298
298
298
298
298
298
298
298
298
298
298
298
298
298
298
298
298
298
298
298
298
298
298
298
298
298
298
298
298
298
298
298
298
298
298
266.93578
499.29322
242.59512
355.63874
292.14729
307.88728
302.28759
304.72564
302.44053
303.55518
303.44789
304.74897
304.2923
302.54289
300.4896
298.92725
298.24086
298.02849
297.99731
297.99753
297.99939
297.99995
298.00001
298
298
298
298
298
298
298
298
298
298
298
298
298
298
298
298
298
298
298
298
298
298
298
298
298
298
298
298
298
298
298
298
298
298
298
298
298
298
298
298
298
298
298
298
298
298
298
298
298
298
298
298
298
298
298
298
298
259.9779
550.35055
237.6277
356.95299
292.06181
308.34929
301.25906
304.94034
302.21083
303.55328
303.5211
304.87871
304.31162
302.40856
300.32711
298.82722
298.20369
298.02069
297.99685
297.99772
297.99951
297.99997
298.00001
298
298
298
298
298
298
298
298
298
298
298
298
298
298
298
298
298
298
298
298
298
298
298
298
298
298
298
298
298
298
298
298
298
298
298
298
298
298
298
298
298
298
298
298
298
298
298
298
298
298
298
298
298
298
298
298
298
257.20318
569.09642
237.17487
350.2526
293.32345
308.23044
300.66029
304.61271
302.04644
303.45444
303.62864
304.92708
304.24531
302.20707
300.13745
298.72476
298.1683
298.01411
297.99663
297.99795
297.99961
297.99998
298.00001
298
298
298
298
298
298
298
298
298
298
298
298
298
298
298
298
298
298
298
298
298
298
298
298
298
298
298
298
298
298
298
298
298
298
298
298
298
298
298
298
298
298
298
298
298
298
298
298
298
298
298
298
298
298
298
298
298
261.78988
500.97769
245.10717
338.22219
294.29749
307.914
300.82583
303.99817
301.96164
303.36357
303.78743
304.90683
304.1678
302.02164
299.98934
298.65135
298.14458
298.01016
297.9966
297.99814
297.99968
297.99999
298.00001
298
298
298
298
298
298
298
298
298
298
298
298
298
298
298
298
298
298
298
298
298
298
298
298
298
298
298
298
298
298
298
298
298
298
298
298
298
298
298
298
298
298
298
298
298
298
298
298
298
298
298
298
298
298
298
298
298
266.97679
429.58143
257.25675
327.57928
296.22209
306.78553
301.282
303.47218
301.93203
303.30272
303.94934
304.83126
304.15006
301.94725
299.94867
298.63405
298.14006
298.00961
297.99662
297.99818
297.99969
297.99999
298.00001
298
298
298
298
298
298
298
298
298
298
298
298
298
298
298
298
298
298
298
298
298
298
298
298
298
298
298
298
298
298
298
298
298
298
298
298
298
298
298
298
298
298
298
298
298
298
298
298
298
298
298
298
298
298
298
298
298
268.69774
415.33224
262.2767
323.41121
297.18997
306.06576
301.5178
303.17417
301.92335
303.23099
303.97559
304.76004
304.25275
302.09461
300.09248
298.71408
298.1692
298.01577
297.99698
297.998
297.99959
297.99998
298.00001
298
298
298
298
298
298
298
298
298
298
298
298
298
298
298
298
298
298
298
298
298
298
298
298
298
298
298
298
298
298
298
298
298
298
298
298
298
298
298
298
298
298
298
298
298
298
298
298
298
298
298
298
298
298
298
298
298
302.88165
287.27592
302.32802
294.815
297.33169
296.2866
296.81251
296.80989
296.69627
296.18663
296.27526
296.7597
297.31417
297.75427
297.93519
297.99309
298.0008
298.00074
298.00016
298.00001
298
298
298
298
298
298
298
298
298
298
298
298
298
298
298
298
298
298
298
298
298
298
298
298
298
298
298
298
298
298
298
298
298
298
298
298
298
298
298
298
298
298
298
298
298
298
298
298
298
298
298
298
298
298
298
298
298
298
298
298
302.92316
287.29312
302.582
294.54771
297.13737
296.27612
296.69718
296.62721
296.52836
296.08003
296.14632
296.68503
297.25148
297.71572
297.92057
297.99017
298.00067
298.00086
298.00022
298.00002
298
298
298
298
298
298
298
298
298
298
298
298
298
298
298
298
298
298
298
298
298
298
298
298
298
298
298
298
298
298
298
298
298
298
298
298
298
298
298
298
298
298
298
298
298
298
298
298
298
298
298
298
298
298
298
298
298
298
298
298
302.5848
287.4467
302.0189
294.50923
296.98389
296.13723
296.52762
296.48605
296.42942
296.03512
296.13371
296.69538
297.26126
297.71847
297.92067
297.98988
298.00059
298.00084
298.00022
298.00002
298
298
298
298
298
298
298
298
298
298
298
298
298
298
298
298
298
298
298
298
298
298
298
298
298
298
298
298
298
298
298
298
298
298
298
298
298
298
298
298
298
298
298
298
298
298
298
298
298
298
298
298
298
298
298
298
298
298
298
298
302.39846
287.71912
301.86137
294.58643
296.97066
296.17606
296.54032
296.51767
296.47727
296.08611
296.18229
296.72465
297.27657
297.72325
297.92175
297.9899
298.00055
298.00082
298.00022
298.00002
298
298
298
298
298
298
298
298
298
298
298
298
298
298
298
298
298
298
298
298
298
298
298
298
298
298
298
298
298
298
298
298
298
298
298
298
298
298
298
298
298
298
298
298
298
298
298
298
298
298
298
298
298
298
298
298
298
298
298
298
302.2625
287.99297
301.72368
294.67832
296.99697
296.2203
296.57366
296.56031
296.52293
296.14204
296.23133
296.75508
297.29146
297.72786
297.92271
297.9899
298.00051
298.0008
298.00022
298.00002
298
298
298
298
298
298
298
298
298
298
298
298
298
298
298
298
298
298
298
298
298
298
298
298
298
298
298
298
298
298
298
298
298
298
298
298
298
298
298
298
298
298
298
298
298
298
298
298
298
298
298
298
298
298
298
298
298
298
298
298
302.13834
288.26347
301.6016
294.77639
297.02781
296.26856
296.61041
296.60226
296.56762
296.1954
296.2777
296.78405
297.30562
297.73225
297.92361
297.9899
298.00047
298.00079
298.00022
298.00002
298
298
298
298
298
298
298
298
298
298
298
298
298
298
298
298
298
298
298
298
298
298
298
298
298
298
298
298
298
298
298
298
298
298
298
298
298
298
298
298
298
298
298
298
298
298
298
298
298
298
298
298
298
298
298
298
298
298
298
298
302.01748
288.52518
301.48364
294.87105
297.05697
296.31465
296.64545
296.64221
296.61027
296.24679
296.32271
296.81236
297.31957
297.73662
297.92452
297.9899
298.00043
298.00077
298.00021
298.00002
298
298
298
298
298
298
298
298
298
298
298
298
298
298
298
298
298
298
298
298
298
298
298
298
298
298
298
298
298
298
298
298
298
298
298
298
298
298
298
298
298
298
298
298
298
298
298
298
298
298
298
298
298
298
298
298
298
298
298
298
301.90042
288.78042
301.37032
294.96261
297.08535
296.35954
296.6799
296.68122
296.65174
296.29698
296.36696
296.84036
297.33352
297.74105
297.92546
297.98991
298.00039
298.00075
298.00021
298.00002
298
298
298
298
298
298
298
298
298
298
298
298
298
298
298
298
298
298
298
298
298
298
298
298
298
298
298
298
298
298
298
298
298
298
298
298
298
298
298
298
298
298
298
298
298
298
298
298
298
298
298
298
298
298
298
298
298
298
298
298
301.78576
289.03209
301.26075
295.052
297.11337
296.40385
296.7142
296.71968
296.69248
296.34642
296.41085
296.86833
297.34761
297.74559
297.92646
297.98994
298.00036
298.00074
298.00021
298.00002
298
298
298
298
298
298
298
298
298
298
298
298
298
298
298
298
298
298
298
298
298
298
298
298
298
298
298
298
298
298
298
298
298
298
298
298
298
298
298
298
298
298
298
298
298
298
298
298
298
298
298
298
298
298
298
298
298
298
298
298
301.67294
289.28116
301.1538
295.14011
297.14105
296.44784
296.74852
296.75783
296.73265
296.39539
296.4546
296.89644
297.36193
297.75028
297.92752
297.98998
298.00032
298.00072
298.00021
298.00002
298
298
298
298
298
298
298
298
298
298
298
298
298
298
298
298
298
298
298
298
298
298
298
298
298
298
298
298
298
298
298
298
298
298
298
298
298
298
298
298
298
298
298
298
298
298
298
298
298
298
298
298
298
298
298
298
298
298
298
298
301.56106
289.53072
301.04841
295.22757
297.16868
296.49187
296.78321
296.79593
296.77263
296.44426
296.49861
296.92496
297.37666
297.7552
297.92867
297.99004
298.00029
298.00071
298.00021
298.00002
298
298
298
298
298
298
298
298
298
298
298
298
298
298
298
298
298
298
298
298
298
298
298
298
298
298
298
298
298
298
298
298
298
298
298
298
298
298
298
298
298
298
298
298
298
298
298
298
298
298
298
298
298
298
298
298
298
298
298
298
301.44892
289.78216
300.94369
295.31517
297.19634
296.53624
296.81847
296.83427
296.81259
296.49337
296.54314
296.95408
297.3919
297.76038
297.92991
297.99012
298.00026
298.00069
298.0002
298.00002
298
298
298
298
298
298
298
298
298
298
298
298
298
298
298
298
298
298
298
298
298
298
298
298
298
298
298
298
298
298
298
298
298
298
298
298
298
298
298
298
298
298
298
298
298
298
298
298
298
298
298
298
298
298
298
298
298
298
298
298
301.33541
290.03789
300.83864
295.40342
297.22429
296.5813
296.8546
296.87314
296.85287
296.54307
296.58859
296.98408
297.40782
297.76589
297.93128
297.99023
298.00023
298.00067
298.0002
298.00002
298
298
298
298
298
298
298
298
298
298
298
298
298
298
298
298
298
298
298
298
298
298
298
298
298
298
298
298
298
298
298
298
298
298
298
298
298
298
298
298
298
298
298
298
298
298
298
298
298
298
298
298
298
298
298
298
298
298
298
298
301.21951
290.30017
300.73247
295.49313
297.25269
296.62737
296.89186
296.91282
296.89376
296.59369
296.63527
297.0152
297.42456
297.7718
297.93278
297.99036
298.0002
298.00065
298.0002
298.00002
298
298
298
298
298
298
298
298
298
298
298
298
298
298
298
298
298
298
298
298
298
298
298
298
298
298
298
298
298
298
298
298
298
298
298
298
298
298
298
298
298
298
298
298
298
298
298
298
298
298
298
298
298
298
298
298
298
298
298
298
301.10041
290.57078
300.62416
295.58504
297.28172
296.67481
296.93056
296.9536
296.93551
296.64562
296.68351
297.04768
297.44227
297.77817
297.93444
297.99052
298.00017
298.00063
298.00019
298.00002
298
298
298
298
298
298
298
298
298
298
298
298
298
298
298
298
298
298
298
298
298
298
298
298
298
298
298
298
298
298
298
298
298
298
298
298
298
298
298
298
298
298
298
298
298
298
298
298
298
298
298
298
298
298
298
298
298
298
298
298
300.977
290.85241
300.51295
295.67968
297.31167
296.72403
296.97099
296.99583
296.97852
296.69926
296.73374
297.08183
297.46115
297.78507
297.93629
297.99071
298.00015
298.00061
298.00019
298.00002
298
298
298
298
298
298
298
298
298
298
298
298
298
298
298
298
298
298
298
298
298
298
298
298
298
298
298
298
298
298
298
298
298
298
298
298
298
298
298
298
298
298
298
298
298
298
298
298
298
298
298
298
298
298
298
298
298
298
298
298
300.84849
291.14717
300.39818
295.77775
297.34281
296.77544
297.01347
297.0398
297.02312
296.755
296.78634
297.11793
297.48135
297.79257
297.93834
297.99095
298.00012
298.00059
298.00018
298.00002
298
298
298
298
298
298
298
298
298
298
298
298
298
298
298
298
298
298
298
298
298
298
298
298
298
298
298
298
298
298
298
298
298
298
298
298
298
298
298
298
298
298
298
298
298
298
298
298
298
298
298
298
298
298
298
298
298
298
298
298
300.71385
291.45749
300.27901
295.88004
297.37539
296.82946
297.05833
297.08585
297.06965
296.81328
296.84171
297.15628
297.50306
297.80075
297.94062
297.99122
298.0001
298.00056
298.00017
298.00002
298
298
298
298
298
298
298
298
298
298
298
298
298
298
298
298
298
298
298
298
298
298
298
298
298
298
298
298
298
298
298
298
298
298
298
298
298
298
298
298
298
298
298
298
298
298
298
298
298
298
298
298
298
298
298
298
298
298
298
298
300.57191
291.78609
300.15466
295.98729
297.40965
296.8866
297.10595
297.13434
297.11848
296.87452
296.90032
297.19721
297.52649
297.8097
297.94315
297.99154
298.00008
298.00054
298.00017
298.00002
298
298
298
298
298
298
298
298
298
298
298
298
298
298
298
298
298
298
298
298
298
298
298
298
298
298
298
298
298
298
298
298
298
298
298
298
298
298
298
298
298
298
298
298
298
298
298
298
298
298
298
298
298
298
298
298
298
298
298
298
300.42193
292.13512
300.02462
296.10018
297.44606
296.94728
297.15673
297.18556
297.17003
296.93918
296.96255
297.24104
297.55181
297.81949
297.94597
297.99192
298.00007
298.00051
298.00016
298.00002
298
298
298
298
298
298
298
298
298
298
298
298
298
298
298
298
298
298
298
298
298
298
298
298
298
298
298
298
298
298
298
298
298
298
298
298
298
298
298
298
298
298
298
298
298
298
298
298
298
298
298
298
298
298
298
298
298
298
298
298
300.26258
292.50785
299.88814
296.21922
297.48523
297.01195
297.21113
297.23989
297.22479
297.00775
297.02891
297.28815
297.57927
297.83021
297.94909
297.99234
298.00005
298.00048
298.00015
298.00002
298
298
298
298
298
298
298
298
298
298
298
298
298
298
298
298
298
298
298
298
298
298
298
298
298
298
298
298
298
298
298
298
298
298
298
298
298
298
298
298
298
298
298
298
298
298
298
298
298
298
298
298
298
298
298
298
298
298
298
298
300.0928
292.90731
299.74463
296.34493
297.52793
297.08112
297.26944
297.2978
297.28335
297.08073
297.09999
297.33891
297.60909
297.84197
297.95255
297.99283
298.00004
298.00044
298.00014
298.00002
298
298
298
298
298
298
298
298
298
298
298
298
298
298
298
298
298
298
298
298
298
298
298
298
298
298
298
298
298
298
298
298
298
298
298
298
298
298
298
298
298
298
298
298
298
298
298
298
298
298
298
298
298
298
298
298
298
298
298
298
299.91128
293.33699
299.5929
296.47878
297.57423
297.15549
297.33206
297.35981
297.34637
297.15855
297.17637
297.39371
297.64151
297.85484
297.95638
297.99338
298.00003
298.00041
298.00013
298.00002
298
298
298
298
298
298
298
298
298
298
298
298
298
298
298
298
298
298
298
298
298
298
298
298
298
298
298
298
298
298
298
298
298
298
298
298
298
298
298
298
298
298
298
298
298
298
298
298
298
298
298
298
298
298
298
298
298
298
298
298
299.71673
293.80079
299.43223
296.62187
297.62382
297.23612
297.39981
297.42593
297.41388
297.24228
297.25879
297.45315
297.67683
297.86895
297.9606
297.994
298.00002
298.00037
298.00012
298.00002
298
298
298
298
298
298
298
298
298
298
298
298
298
298
298
298
298
298
298
298
298
298
298
298
298
298
298
298
298
298
298
298
298
298
298
298
298
298
298
298
298
298
298
298
298
298
298
298
298
298
298
298
298
298
298
298
298
298
298
298
299.50744
294.30331
299.26147
296.77583
297.6765
297.32434
297.47309
297.49663
297.48615
297.33282
297.348
297.5178
297.71532
297.88441
297.96526
297.9947
298.00002
298.00033
298.00011
298.00001
298
298
298
298
298
298
298
298
298
298
298
298
298
298
298
298
298
298
298
298
298
298
298
298
298
298
298
298
298
298
298
298
298
298
298
298
298
298
298
298
298
298
298
298
298
298
298
298
298
298
298
298
298
298
298
298
298
298
298
298
299.28004
294.85309
299.07621
296.94393
297.73125
297.42168
297.55267
297.57252
297.56328
297.43127
297.44476
297.58832
297.75732
297.90136
297.97037
297.99547
298.00002
298.00028
298.00009
298.00001
298
298
298
298
298
298
298
298
298
298
298
298
298
298
298
298
298
298
298
298
298
298
298
298
298
298
298
298
298
298
298
298
298
298
298
298
298
298
298
298
298
298
298
298
298
298
298
298
298
298
298
298
298
298
298
298
298
298
298
298
299.03389
295.45245
298.87632
297.12889
297.78854
297.52928
297.63926
297.65394
297.64609
297.53837
297.54985
297.66539
297.80322
297.91996
297.97601
297.99633
298.00001
298.00023
298.00008
298.00001
298
298
298
298
298
298
298
298
298
298
298
298
298
298
298
298
298
298
298
298
298
298
298
298
298
298
298
298
298
298
298
298
298
298
298
298
298
298
298
298
298
298
298
298
298
298
298
298
298
298
298
298
298
298
298
298
298
298
298
298
298.77152
296.09978
298.66441
297.33397
297.84893
297.64738
297.7327
297.74203
297.73642
297.65428
297.6635
297.74928
297.85326
297.94042
297.98223
297.99729
298.00002
298.00017
298.00006
298.00001
298
298
298
298
298
298
298
298
298
298
298
298
298
298
298
298
298
298
298
298
298
298
298
298
298
298
298
298
298
298
298
298
298
298
298
298
298
298
298
298
298
298
298
298
298
298
298
298
298
298
298
298
298
298
298
298
298
298
298
298
298.48729
296.79606
298.42873
297.5686
297.90897
297.77716
297.83312
297.83762
297.83507
297.78129
297.78695
297.84044
297.90723
297.96293
297.98911
297.99841
298.00004
298.00012
298.00004
298
298
298
298
298
298
298
298
298
298
298
298
298
298
298
298
298
298
298
298
298
298
298
298
298
298
298
298
298
298
298
298
298
298
298
298
298
298
298
298
298
298
298
298
298
298
298
298
298
298
298
298
298
298
298
298
298
298
298
298
298
298.21416
297.49128
298.20477
297.82294
297.97094
297.91954
297.93895
297.9411
297.93995
297.92081
297.92312
297.94108
297.96521
297.9861
297.99653
298.00001
298.00015
298.00007
298.00001
298
298
298
298
298
298
298
298
298
298
298
298
298
298
298
298
298
298
298
298
298
298
298
298
298
298
298
298
298
298
298
298
298
298
298
298
298
298
298
298
298
298
298
298
298
298
298
298
298
298
298
298
298
298
298
298
298
298
298
298
298
297.22083
297.58233
297.31065
297.53098
297.44173
297.48099
297.48232
297.55481
297.54816
297.51967
297.53927
297.65828
297.81326
297.93284
297.98239
297.99598
297.99928
297.99998
298.00001
298
298
298
298
298
298
298
298
298
298
298
298
298
298
298
298
298
298
298
298
298
298
298
298
298
298
298
298
298
298
298
298
298
298
298
298
298
298
298
298
298
298
298
298
298
298
298
298
298
298
298
298
298
298
298
298
298
298
298
298
298
297.7158
297.69346
297.71783
297.69789
297.7196
297.72864
297.75234
297.76339
297.79435
297.84318
297.90335
297.95638
297.98592
297.99666
297.99919
297.99984
297.99994
297.99999
298
298
298
298
298
298
298
298
298
298
298
298
298
298
298
298
298
298
298
298
298
298
298
298
298
298
298
298
298
298
298
298
298
298
298
298
298
298
298
298
298
298
298
298
298
298
298
298
298
298
298
298
298
298
298
298
298
298
298
298
298
298
297.96632
297.96876
297.96821
297.96824
297.96963
297.97423
297.97672
297.97935
297.98367
297.99116
297.99773
298.00077
298.00129
298.00062
298.00018
298.00004
298.00001
298
298
298
298
298
298
298
298
298
298
298
298
298
298
298
298
298
298
298
298
298
298
298
298
298
298
298
298
298
298
298
298
298
298
298
298
298
298
298
298
298
298
298
298
298
298
298
298
298
298
298
298
298
298
298
298
298
298
298
298
298
298
298
297.99318
297.99323
297.99365
297.9941
297.99515
297.99604
297.99719
297.99871
298.00056
298.0019
298.00211
298.00153
298.00076
298.00027
298.00008
298.00002
298
298
298
298
298
298
298
298
298
298
298
298
298
298
298
298
298
298
298
298
298
298
298
298
298
298
298
298
298
298
298
298
298
298
298
298
298
298
298
298
298
298
298
298
298
298
298
298
298
298
298
298
298
298
298
298
298
298
298
298
298
298
298
298
298.00158
298.00157
298.00153
298.00151
298.00145
298.00134
298.00119
298.00108
298.00096
298.00074
298.00047
298.00022
298.00008
298.00002
298.00001
298
298
298
298
298
298
298
298
298
298
298
298
298
298
298
298
298
298
298
298
298
298
298
298
298
298
298
298
298
298
298
298
298
298
298
298
298
298
298
298
298
298
298
298
298
298
298
298
298
298
298
298
298
298
298
298
298
298
298
298
298
298
298
298
298
298.00016
298.00016
298.00016
298.00017
298.00017
298.00016
298.00017
298.00015
298.00011
298.00006
298.00002
298
298
298
298
298
298
298
298
298
298
298
298
298
298
298
298
298
298
298
298
298
298
298
298
298
298
298
298
298
298
298
298
298
298
298
298
298
298
298
298
298
298
298
298
298
298
298
298
298
298
298
298
298
298
298
298
298
298
298
298
298
298
298
298
298
298
298
298
298
298.00004