/*--------------------------------*- C++ -*----------------------------------*\
| =========                 |                                                 |
| \\      /  F ield         | OpenFOAM: The Open Source CFD Toolbox           |
|  \\    /   O peration     | Version:  2406                                  |
|   \\  /    A nd           | Website:  www.openfoam.com                      |
|    \\/     M anipulation  |                                                 |
\*---------------------------------------------------------------------------*/
FoamFile
{
    version     2.0;
    format      ascii;
    arch        "LSB;label=32;scalar=64";
    class       volVectorField;
    location    "0.0001";
    object      U;
}
// * * * * * * * * * * * * * * * * * * * * * * * * * * * * * * * * * * * * * //

dimensions      [0 1 -1 0 0 0 0];

internalField   nonuniform List<vector> 
16000
(
(20.36152 -8.6684624e-21 -0.33342909)
(20.278076 5.8676023e-22 -0.075890274)
(20.322264 -6.6723969e-23 -0.0052649139)
(20.279559 -1.6417257e-22 -0.24737974)
(20.263748 -1.2689829e-21 0.011854026)
(20.227667 -6.6559555e-22 -0.17491709)
(20.209712 -5.6405546e-23 -0.043568729)
(20.174986 3.579452e-23 -0.11889944)
(20.15471 5.0253123e-22 -0.072116423)
(20.114809 -1.9743645e-22 -0.12164963)
(20.080415 4.8811154e-23 -0.10287535)
(20.041317 -5.3835926e-22 -0.094578738)
(20.018217 -1.3254941e-21 -0.052258132)
(20.004947 -5.6340527e-23 -0.025054398)
(20.00104 3.5839719e-22 -0.0061329077)
(20.000042 1.3463737e-22 -0.00091471526)
(19.999977 -7.1733544e-25 0.00025197995)
(19.999986 1.0117837e-25 9.2528843e-05)
(19.999998 -7.8833836e-25 2.5416664e-05)
(20 1.6681115e-25 -7.9939881e-07)
(20 -9.922453e-27 -6.7749953e-07)
(20 6.3436738e-27 -2.1086025e-07)
(20 -4.6853115e-28 1.483232e-09)
(20 -4.1456958e-29 3.8958304e-09)
(20 2.2012237e-29 9.5046578e-10)
(20 2.9280335e-30 -2.0319851e-11)
(20 2.4485601e-31 -1.9360593e-11)
(20 7.1838675e-32 -5.366231e-12)
(20 2.2676781e-34 -3.7003507e-13)
(20 7.1614989e-34 -2.4310041e-13)
(20 0 -5.3785486e-13)
(20 -8.2762861e-33 3.0479527e-12)
(20 -2.7220667e-33 -1.2000513e-12)
(20 7.0930986e-33 6.559375e-15)
(20 2.307439e-32 2.5509406e-12)
(20 -1.7720341e-33 -1.471095e-12)
(20 7.9875786e-33 1.661813e-12)
(20 -1.7910781e-33 -1.0339172e-13)
(20 -1.2174988e-33 -1.7893729e-12)
(20 -1.2713065e-32 1.8242525e-12)
(20 -1.6253843e-32 1.6637052e-12)
(20 -2.955497e-33 1.5885718e-12)
(20 9.5343939e-33 1.6570907e-12)
(20 -9.0657037e-35 -4.7947205e-13)
(20 -4.3642175e-34 -2.1067854e-12)
(20 1.5196695e-33 -2.2449272e-14)
(20 -6.8766472e-33 4.0971052e-12)
(20 2.3591585e-33 -6.4743144e-12)
(20 -5.9265968e-33 -6.7498752e-12)
(20 1.4348609e-33 5.4213233e-12)
(20 -1.131636e-33 6.159343e-12)
(20 3.9161907e-34 -1.1152412e-12)
(20 8.2851599e-34 -3.5186038e-12)
(20 7.9208819e-33 -3.0222772e-12)
(20 -3.2886192e-33 -3.141628e-12)
(20 3.1096789e-33 9.0392642e-12)
(20 -1.1364117e-33 4.5445275e-12)
(20 -7.3134895e-33 -3.7156204e-12)
(20 -5.8883716e-34 -3.0663717e-12)
(20 -8.173033e-33 -3.5650842e-12)
(20 2.7091171e-33 2.9425644e-13)
(20 -4.6751819e-33 4.8411339e-12)
(20 -1.7955235e-33 6.3543885e-12)
(20 -1.1897469e-34 -4.3660781e-12)
(20 1.9947937e-34 -1.4591258e-12)
(20 -1.4582771e-33 1.6335235e-12)
(20 4.4698559e-33 -2.3653701e-12)
(20 -9.4004107e-33 3.2678537e-12)
(20 6.7895198e-33 -3.9958792e-13)
(20 0 -6.5793568e-13)
(20 -3.1795501e-33 3.164527e-12)
(20 -1.4374095e-32 -5.8440718e-12)
(20 1.0739425e-33 -3.22329e-12)
(20 -5.936199e-33 2.6224529e-12)
(20 -4.5288113e-33 4.857582e-12)
(20 8.5740051e-34 -1.6178609e-12)
(20 -2.7227256e-33 -6.4960787e-12)
(20 0 -8.9538491e-13)
(20 2.8329206e-33 2.3627191e-12)
(20 1.8381866e-32 7.1858861e-13)
(20.303558 -6.9357056e-22 -0.38009922)
(20.339967 8.1934732e-22 -0.34791194)
(20.31067 7.0865782e-22 -0.22266376)
(20.320996 2.3653229e-21 -0.39895468)
(20.266253 1.5380668e-21 -0.22528222)
(20.250871 5.4901669e-23 -0.36771229)
(20.212229 2.2016203e-22 -0.26208116)
(20.185284 5.1449031e-23 -0.31856548)
(20.155608 7.55028e-22 -0.27689351)
(20.11374 7.1628143e-22 -0.35365289)
(20.075382 -7.1386564e-22 -0.33623195)
(20.035254 1.4952924e-21 -0.30148224)
(20.013907 7.9985028e-21 -0.18138315)
(20.003019 1.6599804e-21 -0.090571401)
(20.000446 -6.54118e-22 -0.028548092)
(19.999889 -7.4180462e-25 -0.0069580925)
(19.99996 -3.0288707e-23 -0.00056445231)
(19.999989 1.2616614e-24 0.00010920893)
(20 -2.8852018e-24 8.4435576e-05)
(20 4.2318624e-25 1.5315585e-05)
(20 1.3674638e-25 1.2713426e-06)
(20 -4.6437584e-27 -4.5269593e-07)
(20 0 -1.0108867e-07)
(20 -4.42846e-28 -1.1516117e-08)
(20 1.9861982e-29 1.7382176e-09)
(20 -7.2024202e-30 4.1211586e-10)
(20 -2.9773593e-30 3.5622085e-11)
(20 3.7693176e-32 -5.0440269e-12)
(20 1.8622642e-33 -5.8814688e-13)
(20 -2.4553875e-33 -1.4498338e-12)
(20 5.0153873e-33 6.2621698e-13)
(20 -3.5133367e-34 -1.0265207e-12)
(20 1.1614377e-33 -1.8660361e-12)
(20 -2.4425935e-34 4.2053274e-13)
(20 -1.7627824e-33 -7.9165016e-13)
(20 -9.2333725e-36 4.1743867e-12)
(20 2.8182704e-33 4.0145907e-12)
(20 7.017874e-33 -1.2553255e-12)
(20 1.2477876e-33 2.9516488e-12)
(20 7.5863703e-34 3.3340961e-13)
(20 1.8898565e-33 -5.3553843e-13)
(20 -1.6590337e-33 -1.2419622e-12)
(20 -4.6419816e-34 -2.4950622e-12)
(20 1.3567699e-32 7.7958e-13)
(20 -8.2078599e-34 -2.5643384e-12)
(20 8.208007e-33 -3.5069037e-12)
(20 8.4424535e-33 2.4179154e-12)
(20 -6.1786112e-35 -1.9388957e-13)
(20 -1.3881014e-33 2.8184245e-12)
(20 6.304745e-34 7.1505512e-13)
(20 -6.7310108e-34 -3.2261752e-12)
(20 7.1919301e-34 -1.7416141e-12)
(20 -7.0736189e-33 -1.296682e-12)
(20 1.1887875e-33 6.7789868e-12)
(20 -5.4548213e-34 1.6490284e-12)
(20 3.3928407e-33 4.983207e-12)
(20 3.4800698e-33 8.0743765e-12)
(20 0 -6.5980353e-12)
(20 -9.7800397e-33 -1.3312296e-11)
(20 -2.7154527e-34 -4.4918451e-12)
(20 -3.858789e-33 7.014398e-12)
(20 1.2899993e-33 3.2957431e-12)
(20 -2.0669278e-33 -4.5063425e-12)
(20 -1.9067039e-33 -4.0956569e-13)
(20 -3.1704722e-34 6.0058427e-13)
(20 1.0138707e-33 2.2182377e-12)
(20 -1.1804859e-33 6.2721044e-12)
(20 6.1763566e-33 3.2866667e-12)
(20 -2.6275669e-33 -4.4504039e-12)
(20 1.0520243e-32 -5.5408171e-12)
(20 -4.0573867e-33 7.0543405e-12)
(20 -5.1160459e-34 5.0312636e-12)
(20 1.6867728e-33 -5.7970706e-12)
(20 1.6331831e-34 -4.196682e-12)
(20 9.9601673e-34 2.7113081e-12)
(20 1.9018578e-34 -5.2728631e-13)
(20 -6.2688017e-33 3.0081833e-14)
(20 1.0951822e-33 -1.0877847e-13)
(20 -6.92609e-34 -4.2952571e-12)
(20 -2.8465512e-33 1.6421839e-12)
(20.22473 -1.3459472e-22 -0.47864338)
(20.37431 -2.3956563e-23 -0.74972335)
(20.316462 2.754489e-22 -0.39180214)
(20.34555 5.5403457e-22 -0.57095809)
(20.269434 3.5106088e-23 -0.51351602)
(20.263523 -5.587591e-22 -0.5595395)
(20.21119 9.3894803e-22 -0.51929394)
(20.191691 -4.699273e-22 -0.50394358)
(20.154867 0 -0.50192025)
(20.110882 2.9370086e-23 -0.58513713)
(20.067917 -6.2709161e-23 -0.58650143)
(20.025408 2.4330567e-21 -0.53019055)
(20.006276 -2.8828256e-21 -0.336592)
(19.997955 -5.3470046e-21 -0.17730214)
(19.998254 2.3094124e-21 -0.062114003)
(19.999167 4.7418984e-22 -0.016706836)
(19.999834 -8.6958267e-23 -0.0021448603)
(19.999984 7.5611886e-24 5.5004229e-05)
(20.000006 1.5329877e-24 0.00015106028)
(20.000003 1.0407907e-24 4.0077246e-05)
(20 -1.9771901e-25 5.1845695e-06)
(20 -7.3472514e-29 -4.9091393e-07)
(20 -4.2248443e-29 -2.1709742e-07)
(20 1.1084933e-27 -4.004615e-08)
(20 5.9086635e-29 6.5713567e-10)
(20 4.7504578e-31 7.8376478e-10)
(20 -4.5213569e-32 1.4146609e-10)
(20 -1.0864643e-33 -1.4633522e-12)
(20 -1.9175864e-32 -2.9140543e-12)
(20 3.6090757e-33 1.1772966e-12)
(20 -5.6111751e-33 -3.3952483e-13)
(20 9.0012269e-33 8.3427721e-13)
(20 2.1424545e-34 1.2203823e-12)
(20 -1.1546581e-33 2.5799833e-12)
(20 9.5748705e-33 2.6107797e-12)
(20 -8.3133959e-34 -2.8752792e-12)
(20 1.1398725e-32 -4.9825327e-12)
(20 -1.76042e-32 -3.5999041e-12)
(20 2.094195e-33 2.0903166e-12)
(20 -3.1242777e-33 4.624701e-13)
(20 2.3083015e-33 2.4924568e-12)
(20 2.6184817e-34 2.8236386e-12)
(20 1.7333062e-33 -4.4517041e-12)
(20 -8.4726521e-35 -1.1866222e-12)
(20 -1.5848782e-34 -2.7115785e-12)
(20 1.1546431e-33 -2.7254679e-12)
(20 -4.3498257e-33 1.0759175e-11)
(20 -1.3948066e-34 9.4291432e-12)
(20 -1.4710896e-33 7.6218172e-14)
(20 -3.3700225e-34 -2.5236652e-12)
(20 1.1877584e-34 -4.2606274e-12)
(20 4.1605784e-35 -3.4269274e-12)
(20 -4.2468922e-33 -1.7831249e-12)
(20 3.1243469e-33 2.1778212e-12)
(20 -3.6488436e-33 -3.5485739e-12)
(20 4.1696493e-33 1.0148577e-12)
(20 -5.5356073e-34 1.1761229e-11)
(20 -2.0384148e-33 -1.6518534e-12)
(20 7.3474669e-34 -1.0249012e-11)
(20 9.2905389e-35 -4.1910593e-12)
(20 4.3030609e-33 1.3570042e-12)
(20 3.4069493e-33 2.1216581e-12)
(20 4.9158237e-33 -1.0965051e-12)
(20 -2.2884781e-33 -1.1612553e-13)
(20 1.2035803e-33 5.9089943e-13)
(20 5.3020495e-34 5.2268205e-12)
(20 5.3165765e-34 3.5044137e-12)
(20 -1.2469093e-32 -3.5548401e-12)
(20 9.9165142e-33 1.4574306e-12)
(20 1.9598224e-34 -2.8052609e-12)
(20 1.1397055e-33 -2.3374134e-12)
(20 -2.4964635e-33 4.303621e-12)
(20 7.1729765e-35 2.1648218e-12)
(20 8.9808379e-35 -2.0716377e-12)
(20 2.3092507e-33 -3.6985221e-13)
(20 -6.6322998e-35 3.3006689e-13)
(20 1.2886345e-32 -1.7438114e-12)
(20 1.8630923e-34 -1.4915424e-12)
(20 1.789709e-33 6.5018788e-13)
(20 1.510219e-33 7.4907118e-14)
(20.141661 -1.6484172e-21 -0.51452097)
(20.402148 -8.4419089e-23 -1.0820309)
(20.311002 5.3304485e-23 -0.60747257)
(20.358958 9.2763336e-23 -0.7705128)
(20.272314 -6.4952651e-23 -0.80797373)
(20.265321 -2.5330887e-22 -0.76411676)
(20.207141 -3.0398068e-21 -0.78128123)
(20.193538 -3.0484471e-23 -0.69522719)
(20.150189 -1.1838472e-22 -0.73098246)
(20.104053 -2.0397318e-21 -0.81095907)
(20.055302 3.3542473e-22 -0.84935261)
(20.009051 -2.8713327e-22 -0.78242778)
(19.993159 4.8321728e-21 -0.51942922)
(19.989174 -1.2131407e-23 -0.28555432)
(19.994503 -1.3259922e-23 -0.10587813)
(19.997925 4.6490199e-24 -0.030266733)
(19.99961 1.4567093e-22 -0.0045005558)
(19.99997 1.6057203e-24 -8.012976e-05)
(20.000015 1.7676496e-25 0.00023726444)
(20.000006 -1.3467664e-25 7.2073924e-05)
(20.000001 3.6938033e-25 1.0828784e-05)
(20 -1.7753178e-28 -5.2486434e-07)
(20 -4.8612496e-27 -3.6199863e-07)
(20 -2.0973797e-27 -7.7533247e-08)
(20 1.3081567e-28 -5.9430398e-10)
(20 2.3497075e-29 1.2232457e-09)
(20 1.5836115e-30 2.6295428e-10)
(20 -5.1797761e-31 4.6015798e-12)
(20 -4.5450592e-32 -5.210048e-12)
(20 9.5831977e-34 2.8618631e-12)
(20 2.1681778e-33 3.0858647e-12)
(20 -2.7817583e-33 1.2859292e-12)
(20 -6.3021474e-33 1.0785659e-12)
(20 4.2841933e-33 2.4308512e-12)
(20 -6.954824e-34 1.8565126e-12)
(20 1.3771094e-32 -5.1931214e-12)
(20 1.0447421e-34 -4.1010541e-12)
(20 -1.3033505e-32 -3.2299644e-13)
(20 -1.798757e-32 -2.0437208e-12)
(20 -9.8902493e-33 -2.5057222e-13)
(20 -9.431502e-33 5.4649707e-13)
(20 -4.1087984e-33 1.7442971e-12)
(20 3.5250098e-33 1.2382485e-12)
(20 1.5978832e-34 -4.3299293e-12)
(20 7.5774971e-33 -1.9217009e-12)
(20 9.1324605e-33 6.354221e-12)
(20 -7.2076156e-35 8.8237159e-12)
(20 8.7213023e-33 5.5140304e-12)
(20 -2.6907234e-33 -4.1884388e-12)
(20 4.6737031e-33 -9.2718864e-12)
(20 2.5236683e-33 -3.6939951e-12)
(20 2.7782476e-33 2.5315891e-12)
(20 6.8114558e-34 8.5223099e-13)
(20 7.824252e-34 1.6368381e-12)
(20 8.3033528e-33 -8.9527404e-13)
(20 -2.7198955e-33 2.2645588e-12)
(20 -1.6647906e-33 8.8277503e-12)
(20 -1.3274212e-33 1.4493178e-12)
(20 -7.4390212e-34 4.0463374e-13)
(20 4.3876088e-33 -3.9833333e-12)
(20 3.6714237e-33 -3.4404176e-12)
(20 4.1166458e-33 1.2650377e-12)
(20 5.9975785e-33 -8.6529451e-13)
(20 1.7099538e-33 -3.6718393e-12)
(20 1.0239443e-33 4.1418405e-13)
(20 3.2820501e-33 5.4836393e-12)
(20 2.7738436e-35 -3.8029725e-12)
(20 4.516677e-33 -5.5158113e-12)
(20 1.1849569e-32 8.3309215e-12)
(20 1.8305437e-33 5.8109043e-12)
(20 -8.9045964e-35 -1.4226915e-12)
(20 -1.6465427e-34 -1.2777067e-12)
(20 -3.0031288e-34 -4.7989494e-13)
(20 2.5590477e-33 -2.7620713e-12)
(20 4.5684666e-35 -5.3027771e-12)
(20 3.2575508e-33 3.2627692e-12)
(20 -2.3722452e-33 5.5220693e-12)
(20 -9.2071909e-33 -2.5930191e-12)
(20 4.0656343e-33 -3.6490486e-12)
(20 -1.6045914e-34 7.3924919e-13)
(20.038556 -3.9125879e-21 -0.57338214)
(20.426592 -1.6410008e-21 -1.4282434)
(20.2971 0 -0.80056029)
(20.37444 3.3513985e-23 -0.97354164)
(20.267697 2.6790043e-21 -1.110509)
(20.265765 -3.5691995e-21 -0.99179412)
(20.204415 -8.3876795e-21 -1.0368919)
(20.191553 -4.3246899e-22 -0.89180941)
(20.143533 -3.571135e-21 -0.9707827)
(20.092761 4.4702655e-24 -1.03225)
(20.037067 -7.8787044e-23 -1.1239523)
(19.985938 -7.1199542e-21 -1.0535092)
(19.974267 -4.4453094e-22 -0.72644073)
(19.976345 1.0072863e-20 -0.41555363)
(19.988776 -2.3359973e-21 -0.16155799)
(19.995965 8.1279759e-22 -0.048641137)
(19.999226 3.0361653e-22 -0.0080389775)
(19.999939 -6.9127786e-23 -0.00038012362)
(20.000027 2.2531791e-24 0.00033553903)
(20.000012 -1.8157055e-24 0.00011433472)
(20.000002 -1.7672427e-24 1.9503937e-05)
(20 3.3353105e-26 -3.512718e-07)
(20 -1.3637966e-26 -5.4536716e-07)
(20 -5.8810337e-27 -1.3197791e-07)
(20 -4.8013539e-29 -3.3666252e-09)
(20 -1.5429704e-29 1.7763495e-09)
(20 1.8966784e-29 4.4367397e-10)
(20 7.6612313e-32 1.4680642e-11)
(20 6.0297395e-32 -5.0150657e-12)
(20 6.2212995e-32 -2.3523276e-12)
(20 -8.0516923e-34 3.4276495e-12)
(20 4.9475873e-33 2.2364217e-12)
(20 -5.6922004e-33 1.9158882e-13)
(20 5.4330046e-35 -1.3366778e-12)
(20 6.1750975e-35 2.2098326e-14)
(20 3.8042682e-34 -2.9731914e-12)
(20 -2.9070495e-35 -3.2187357e-12)
(20 -7.5704493e-34 4.2447149e-12)
(20 1.6707297e-33 -1.7000594e-12)
(20 6.5173899e-34 2.8615722e-13)
(20 -1.7809557e-34 -6.8219292e-13)
(20 -8.4518485e-33 -2.7483717e-12)
(20 -2.4919959e-33 1.0521831e-12)
(20 -4.1861351e-33 -2.2428569e-12)
(20 -7.6916851e-34 3.430458e-12)
(20 9.1558227e-33 7.1720585e-12)
(20 1.0799717e-32 5.2196853e-12)
(20 -5.328245e-33 5.9938763e-13)
(20 4.9192314e-33 -9.2993492e-12)
(20 -1.1392183e-34 -5.4380864e-12)
(20 5.337222e-33 -2.7215556e-12)
(20 -2.1138731e-33 -2.393628e-13)
(20 1.6373209e-33 2.0180451e-12)
(20 2.6299184e-33 -1.2153522e-12)
(20 -1.8556493e-33 -9.3377385e-13)
(20 1.9592891e-33 -2.1965545e-13)
(20 -3.5368744e-33 7.4981146e-12)
(20 4.716635e-33 1.5783654e-12)
(20 2.560822e-33 6.3075105e-13)
(20 4.1432313e-33 6.3953273e-12)
(20 3.9711425e-33 -3.8731781e-12)
(20 4.4247424e-33 -7.504544e-12)
(20 -3.1976396e-33 -1.5633755e-13)
(20 1.0464198e-33 4.6129802e-13)
(20 1.235087e-33 1.9153848e-12)
(20 -3.0673085e-33 3.6867922e-12)
(20 -3.5473518e-33 -2.0736888e-12)
(20 -2.0550454e-34 -3.6962383e-12)
(20 8.6369454e-34 1.8406008e-12)
(20 3.7890658e-33 3.1720312e-12)
(20 3.7631076e-33 -1.6616966e-12)
(20 -3.4108163e-34 1.1344774e-12)
(20 -1.512055e-33 3.3248239e-12)
(20 -3.3982995e-33 -1.1433758e-12)
(20 4.5595461e-34 7.5689039e-13)
(20 7.0051544e-33 -2.7919259e-12)
(20 1.192414e-32 -1.1638589e-12)
(20 -6.1617858e-35 2.6832859e-12)
(20 1.0498226e-33 -2.1905522e-12)
(20 2.0664667e-34 2.4546466e-13)
(19.953814 -1.9499683e-22 -0.59446178)
(20.463076 1.3089099e-21 -1.7983946)
(20.272438 -3.912775e-22 -1.0293602)
(20.39806 -8.9500106e-23 -1.161771)
(20.257643 -1.6536186e-23 -1.4308756)
(20.26783 8.4640973e-23 -1.1912656)
(20.200558 3.2755928e-23 -1.3122168)
(20.18318 -4.4664331e-21 -1.1194508)
(20.13459 1.4290444e-21 -1.2093612)
(20.078216 -8.5566344e-21 -1.2601629)
(20.013412 -4.3743907e-22 -1.4060322)
(19.955623 -3.2432193e-21 -1.3437221)
(19.948539 -1.4168398e-20 -0.95705652)
(19.958297 1.7978167e-20 -0.56801735)
(19.980384 4.3224103e-21 -0.23030512)
(19.992976 -5.8035487e-21 -0.072591558)
(19.998592 -6.5175145e-23 -0.013071553)
(19.999874 1.6688174e-22 -0.00091999028)
(20.000042 -9.0446692e-26 0.00043858886)
(20.000019 2.8552224e-24 0.00016792246)
(20.000004 -1.6401706e-27 3.2164832e-05)
(20 1.6577274e-28 1.9611448e-07)
(20 -1.076946e-28 -7.6148118e-07)
(20 -2.2669676e-29 -2.0703105e-07)
(20 4.5781825e-28 -8.76056e-09)
(20 -1.0592821e-29 2.366429e-09)
(20 -5.0585766e-32 6.920554e-10)
(20 2.883729e-30 3.2068274e-11)
(20 -5.1912759e-32 -6.273374e-12)
(20 2.9703105e-32 -2.3319189e-12)
(20 2.7950254e-35 2.0297576e-12)
(20 9.5540353e-36 -3.6528773e-13)
(20 2.642367e-33 1.6149344e-12)
(20 -1.0418755e-34 3.2755933e-13)
(20 1.027952e-33 1.8619781e-12)
(20 1.6756056e-33 2.1042911e-12)
(20 9.8653073e-34 -6.1811894e-12)
(20 -7.8965501e-33 -3.1859312e-12)
(20 -9.2259322e-33 1.230726e-12)
(20 1.0423966e-32 7.0934854e-13)
(20 -5.0140203e-33 2.2961745e-12)
(20 1.0418562e-32 3.7179539e-12)
(20 -1.3090401e-33 -5.1130052e-13)
(20 -9.8539571e-33 -1.8224085e-12)
(20 4.6599827e-33 1.3544977e-12)
(20 1.4177558e-33 -1.2889726e-12)
(20 1.59657e-33 -6.4771817e-14)
(20 6.6685255e-33 -8.5036858e-13)
(20 -6.356397e-33 -5.8577381e-12)
(20 6.5892617e-33 -3.1373504e-12)
(20 2.2682303e-34 -1.0119138e-12)
(20 1.0548874e-32 5.9732985e-12)
(20 -1.7078559e-33 2.753276e-12)
(20 -4.4898974e-33 -5.2342557e-12)
(20 -1.885723e-33 3.5247906e-12)
(20 -5.4684958e-33 2.2420661e-12)
(20 2.4692631e-33 -2.2524751e-12)
(20 -5.6739133e-33 -3.6966951e-12)
(20 -7.2968834e-34 3.5418409e-12)
(20 7.6673994e-33 1.0310676e-11)
(20 2.2295219e-33 2.8096335e-12)
(20 -2.4119932e-33 -6.4957766e-12)
(20 1.0072849e-32 -6.0082714e-12)
(20 2.303061e-34 -1.0197388e-12)
(20 1.2448875e-33 1.8694542e-12)
(20 2.3382234e-33 -2.7577851e-14)
(20 -1.4777943e-33 -2.5686823e-12)
(20 -2.0903271e-33 2.705307e-12)
(20 8.6641368e-35 1.5352088e-12)
(20 1.3781109e-33 6.5735531e-14)
(20 1.027235e-33 -2.4196942e-12)
(20 1.3158877e-33 2.6203748e-12)
(20 -1.045389e-33 3.6909365e-12)
(20 1.5818568e-33 -5.0917679e-12)
(20 1.1236789e-35 1.8950857e-13)
(20 -6.8617807e-33 -1.9697459e-13)
(20 -7.3135609e-34 1.5791334e-12)
(20 2.4402655e-34 3.0633681e-12)
(20 -3.4208441e-33 -4.5579706e-12)
(20 3.8752865e-34 -1.3586814e-13)
(19.894923 8.9414204e-21 -0.59102702)
(20.504522 1.3061248e-21 -2.2093298)
(20.23828 2.4286661e-21 -1.2777775)
(20.430456 3.3107647e-21 -1.3490411)
(20.239011 -4.5994683e-21 -1.77548)
(20.273896 7.6967139e-21 -1.3689147)
(20.187666 -8.4586195e-23 -1.6206183)
(20.168843 -4.45718e-23 -1.3711133)
(20.121106 -1.1989828e-21 -1.4497522)
(20.061396 -1.0349564e-20 -1.4916121)
(19.983032 8.498342e-24 -1.6991422)
(19.916945 -3.3047576e-22 -1.6531287)
(19.914671 -6.5694678e-21 -1.2108657)
(19.933875 -1.4058561e-21 -0.7430415)
(19.968598 8.5355687e-22 -0.31292905)
(19.988615 -2.1677794e-21 -0.1027625)
(19.997607 4.2074896e-23 -0.019883258)
(19.999757 7.2840571e-23 -0.0017747403)
(20.00006 -1.0680744e-25 0.00053783707)
(20.00003 7.1358348e-24 0.00023323667)
(20.000007 -1.1730175e-24 4.955654e-05)
(20 -1.2599172e-25 1.2797629e-06)
(20 -1.1750153e-28 -1.0001632e-06)
(20 5.5639788e-27 -3.0491214e-07)
(20 -1.4289859e-27 -1.7880351e-08)
(20 -5.2765146e-30 2.9095972e-09)
(20 -1.7150822e-29 1.0173175e-09)
(20 -7.2442402e-30 6.2807174e-11)
(20 -3.4296431e-32 -6.8668249e-12)
(20 -1.9367018e-32 -1.4549323e-12)
(20 -1.576522e-33 -9.1222671e-13)
(20 1.697934e-32 1.216762e-12)
(20 2.6011003e-33 3.5786936e-13)
(20 2.5108946e-33 -1.6728647e-12)
(20 -2.7933121e-34 -6.8045038e-13)
(20 4.5740394e-33 2.718227e-12)
(20 6.444308e-33 9.6991433e-13)
(20 2.1842291e-32 2.0196329e-12)
(20 8.3095711e-34 3.7463254e-12)
(20 -3.4282981e-33 1.4272613e-12)
(20 -2.9885144e-33 7.626052e-13)
(20 0 -7.0637745e-13)
(20 -3.5100492e-33 -2.5634002e-12)
(20 -2.4483415e-33 -7.1765047e-13)
(20 -4.212565e-34 4.0541607e-12)
(20 -2.5474645e-33 -4.0724384e-12)
(20 -6.0934402e-33 -2.9701756e-12)
(20 2.9697234e-33 1.866989e-12)
(20 7.3869331e-33 -4.3651968e-13)
(20 -3.0287051e-33 6.6345375e-13)
(20 6.6231852e-33 -3.636285e-12)
(20 -2.6684391e-33 3.2863239e-12)
(20 2.2562807e-33 7.2664988e-12)
(20 -1.0214859e-33 -1.5244986e-12)
(20 2.175208e-33 -5.8006157e-12)
(20 -7.8871128e-34 -1.0499086e-11)
(20 -3.5045285e-33 -2.1270547e-12)
(20 2.142847e-33 6.8853449e-12)
(20 -2.2733219e-33 2.3687968e-13)
(20 -4.623158e-33 -5.9083039e-13)
(20 -8.0303974e-33 1.0636433e-11)
(20 -2.6125313e-33 7.7998931e-12)
(20 6.818259e-34 -3.5249206e-12)
(20 -4.8329941e-33 -5.605453e-12)
(20 3.0515181e-33 -2.6086379e-12)
(20 -6.7211719e-34 1.7676092e-12)
(20 -2.0181825e-34 -2.8016116e-12)
(20 1.529681e-33 -1.0358921e-12)
(20 -8.100087e-34 2.0966983e-12)
(20 1.7569067e-33 1.3361018e-12)
(20 2.4127756e-34 -2.6793313e-13)
(20 -6.5864995e-33 1.0422488e-12)
(20 1.2081489e-33 -1.3008445e-12)
(20 -1.1362749e-33 -2.2048041e-12)
(20 5.5301364e-33 1.3278028e-12)
(20 7.9286224e-34 -1.4390651e-12)
(20 -9.4128532e-33 9.7648046e-13)
(20 5.5422613e-34 4.7636133e-13)
(20 6.162908e-34 1.8329543e-12)
(20 -2.2523332e-35 -1.2376794e-12)
(19.897615 2.5515643e-20 -0.54279937)
(20.552711 1.5928912e-22 -2.6539416)
(20.192574 2.6075638e-21 -1.5516469)
(20.469167 -5.6853387e-21 -1.5345478)
(20.208039 -3.4861358e-21 -2.1561385)
(20.283895 -2.6582826e-20 -1.5246986)
(20.164064 1.1190027e-20 -1.9769065)
(20.150144 -6.5553736e-21 -1.6394068)
(20.103635 8.5498651e-22 -1.6841806)
(20.041662 5.5328415e-21 -1.7281289)
(19.942453 -9.8232562e-22 -2.0081333)
(19.869275 4.2443403e-21 -1.9824993)
(19.871426 -6.7996212e-22 -1.4868161)
(19.901822 -7.5452016e-21 -0.94052032)
(19.952595 -6.1286411e-21 -0.41012114)
(19.982496 4.8685001e-21 -0.13969303)
(19.996147 6.4550456e-23 -0.028735112)
(19.999562 -1.264675e-22 -0.003020939)
(20.000078 4.2761693e-24 0.00062228568)
(20.000045 -4.5835432e-24 0.0003103872)
(20.000011 4.8811106e-24 7.2326339e-05)
(20 3.2489823e-26 3.0741588e-06)
(20 6.3844632e-27 -1.2459288e-06)
(20 -7.7539218e-27 -4.2728169e-07)
(20 -9.7614401e-31 -3.1845367e-08)
(20 2.2119254e-29 3.3105919e-09)
(20 -2.3814623e-29 1.4261388e-09)
(20 6.9946201e-30 1.0925804e-10)
(20 5.4295303e-32 -4.7479096e-12)
(20 5.8979042e-32 -1.3522739e-12)
(20 -5.3352693e-33 -2.7364829e-12)
(20 -4.7898442e-33 -2.0732778e-12)
(20 -1.7801117e-33 9.4203661e-13)
(20 -3.0150155e-33 2.594771e-12)
(20 -2.1264679e-33 -2.3781207e-12)
(20 1.3472181e-32 -3.1179746e-12)
(20 3.6972957e-33 -1.7684285e-12)
(20 -1.2622338e-32 1.4767973e-12)
(20 -1.0760994e-32 1.612123e-12)
(20 -4.777526e-33 -1.377776e-12)
(20 -1.1947378e-32 -4.7742426e-14)
(20 -2.7916619e-33 7.7066997e-13)
(20 -8.473407e-34 1.2874171e-12)
(20 -3.8077863e-33 3.2605375e-12)
(20 3.2949949e-34 2.6236502e-12)
(20 -2.5014474e-34 -4.4906968e-12)
(20 -2.0603979e-34 -3.4850625e-12)
(20 -2.7506574e-33 5.9155931e-12)
(20 1.0431057e-32 2.6153569e-12)
(20 1.5422857e-33 -6.6486411e-12)
(20 2.196808e-33 -6.8436848e-12)
(20 1.6547132e-33 -2.6864861e-12)
(20 -4.0437535e-33 3.0848365e-12)
(20 -1.1924199e-33 2.1625098e-12)
(20 -5.6469189e-33 -2.115664e-12)
(20 2.8316149e-33 -4.0112008e-12)
(20 -5.9007519e-33 -1.3388719e-12)
(20 -4.3906254e-33 2.4623533e-12)
(20 5.5446501e-34 4.8246382e-13)
(20 1.298536e-33 -4.0311665e-12)
(20 -2.8769425e-36 1.7344166e-12)
(20 -5.6488575e-33 3.7847833e-12)
(20 7.1253102e-34 -4.0915736e-12)
(20 9.1408207e-33 4.9103895e-12)
(20 1.6851133e-33 3.4749768e-12)
(20 1.4811357e-33 -2.584438e-12)
(20 6.7647126e-35 1.8197337e-12)
(20 -7.5097153e-34 4.4716593e-12)
(20 6.6941531e-33 -3.6020675e-12)
(20 -9.1245621e-34 2.8686429e-12)
(20 -2.0845635e-34 5.4533472e-12)
(20 5.1984481e-34 -2.4681084e-12)
(20 -8.7293322e-34 -1.7542816e-12)
(20 5.8396744e-33 -2.4361413e-12)
(20 -8.1619249e-34 2.1409927e-13)
(20 -1.9343603e-34 1.0259666e-12)
(20 6.9462582e-33 -1.4558999e-12)
(20 -2.6986571e-33 -1.071627e-12)
(20 3.1710605e-34 1.5353153e-12)
(20 -3.7266484e-33 -2.5034306e-13)
(19.979846 -1.6057466e-20 -0.45767863)
(20.60685 -4.9932528e-22 -3.1390406)
(20.133787 -3.3086175e-21 -1.8554868)
(20.513427 -2.5082234e-22 -1.7337373)
(20.165604 4.0206576e-22 -2.5747908)
(20.297974 -2.0266115e-20 -1.6546865)
(20.128735 1.8491246e-20 -2.3666056)
(20.129514 -2.9164885e-21 -1.9236154)
(20.079005 2.1158737e-22 -1.9288702)
(20.01515 5.8717017e-22 -1.9748346)
(19.894571 -1.708029e-22 -2.336704)
(19.811232 -3.9423779e-22 -2.3244864)
(19.817268 7.9070176e-22 -1.7866935)
(19.860752 -1.023377e-20 -1.1603187)
(19.931447 -6.1499133e-21 -0.52242828)
(19.974153 -3.1248356e-21 -0.18390805)
(19.994062 1.6814206e-21 -0.03989089)
(19.999257 1.8830759e-22 -0.0047385162)
(20.000096 -5.4793002e-25 0.00067930854)
(20.000064 -5.0381469e-24 0.00039928723)
(20.000017 2.0103128e-24 0.00010105485)
(20.000001 2.8163843e-25 5.7648899e-06)
(20 1.9476539e-27 -1.4792079e-06)
(20 9.582925e-27 -5.755161e-07)
(20 -1.5988154e-27 -5.1752392e-08)
(20 4.8357686e-29 3.4460152e-09)
(20 -5.0439336e-30 1.9242901e-09)
(20 1.0767677e-29 1.7265631e-10)
(20 -6.1517857e-33 -1.0560596e-11)
(20 0 -4.0983065e-12)
(20 -7.878757e-36 -1.9871769e-14)
(20 -9.4661816e-34 1.8638591e-12)
(20 7.5176099e-33 6.9983062e-13)
(20 8.5496125e-34 -8.9439424e-13)
(20 2.5816843e-33 9.7077467e-14)
(20 -1.1260551e-33 2.6037059e-13)
(20 -5.9878357e-33 2.9183105e-12)
(20 1.3090372e-34 -3.1444193e-12)
(20 4.2072246e-34 -1.9722747e-12)
(20 -1.621692e-32 -1.7938179e-12)
(20 2.1595794e-33 -4.8615253e-12)
(20 -6.3351516e-33 1.3631612e-12)
(20 5.501497e-34 3.872999e-12)
(20 9.8044312e-34 2.5009724e-12)
(20 -1.4341395e-33 1.5036678e-12)
(20 9.1757751e-33 5.166701e-12)
(20 -2.1611003e-32 2.78282e-13)
(20 -4.4249384e-33 2.7799019e-13)
(20 -2.1077878e-32 2.8992889e-14)
(20 3.9377984e-33 -7.0113248e-12)
(20 6.2587905e-33 -7.5854266e-13)
(20 -4.3629675e-33 1.4942053e-13)
(20 3.4368991e-33 -4.35218e-12)
(20 -7.1844059e-33 1.8066107e-12)
(20 -6.8573402e-33 3.3655527e-12)
(20 -1.3243857e-32 3.297797e-12)
(20 -2.048262e-33 -4.8357994e-13)
(20 -1.3439496e-32 -8.4378173e-12)
(20 -8.4278733e-33 -6.5222505e-12)
(20 1.9384961e-33 -5.0710471e-12)
(20 1.189937e-33 -1.7080192e-12)
(20 -2.7434591e-33 5.7695184e-12)
(20 5.428139e-33 2.5552462e-13)
(20 -5.2105149e-33 -3.9110497e-12)
(20 4.5160886e-33 4.6636695e-14)
(20 -6.0736439e-33 6.0626942e-13)
(20 7.0591056e-34 -1.7149138e-12)
(20 1.3940412e-34 1.9982935e-12)
(20 -5.0498142e-34 -1.0930132e-12)
(20 -2.7934184e-34 1.9946102e-12)
(20 -6.2439265e-33 6.5192847e-12)
(20 -5.0466669e-33 -3.2011323e-13)
(20 -1.4217357e-33 2.6263334e-12)
(20 7.6991399e-33 -2.86804e-13)
(20 2.1762037e-33 8.6121025e-13)
(20 -1.8849085e-33 2.6509929e-12)
(20 2.3221001e-33 -6.0558093e-12)
(20 0 -3.4174473e-12)
(20 9.0587878e-33 2.2884416e-12)
(20 0 6.1920605e-13)
(20.161607 1.9305446e-20 -0.33494617)
(20.673845 -6.4096418e-23 -3.6808333)
(20.05235 5.0568347e-21 -2.1945515)
(20.570618 -1.862712e-21 -1.938708)
(20.107797 -5.8734991e-21 -3.0398716)
(20.31979 -1.1966187e-20 -1.7720061)
(20.07902 6.0858643e-22 -2.7888121)
(20.104076 -2.8036754e-21 -2.2218569)
(20.046459 -1.3540707e-23 -2.202912)
(19.982459 5.7116785e-23 -2.2170808)
(19.838947 -8.3906164e-21 -2.6748908)
(19.740036 3.7688552e-21 -2.6905088)
(19.75012 -1.9493735e-20 -2.1128656)
(19.808943 -1.0533155e-20 -1.4034998)
(19.904048 -6.6280646e-22 -0.65050859)
(19.963033 7.1829188e-21 -0.2359288)
(19.991164 9.4883139e-23 -0.053616185)
(19.998799 -2.2964779e-22 -0.0070106266)
(20.000109 -1.1307186e-23 0.00069502439)
(20.000089 5.5132083e-24 0.00049972605)
(20.000025 -7.5425204e-24 0.00013621076)
(20.000002 -9.7232403e-26 9.5479235e-06)
(20 1.0342086e-26 -1.6766378e-06)
(20 -9.5651302e-27 -7.5085483e-07)
(20 1.7886026e-27 -7.8679943e-08)
(20 3.1100127e-28 3.1868921e-09)
(20 6.7030745e-29 2.5172998e-09)
(20 1.1684028e-30 2.6020852e-10)
(20 -2.5279992e-31 -7.8272867e-12)
(20 -9.1337527e-32 -4.6494762e-12)
(20 -6.3900495e-34 -2.1934684e-12)
(20 -1.0231723e-34 6.7520727e-13)
(20 -3.0621883e-33 2.0284692e-13)
(20 -7.6879134e-33 -2.3946707e-12)
(20 3.5816444e-33 -3.8706428e-13)
(20 1.6733648e-32 1.3107844e-12)
(20 -3.334324e-33 1.2496475e-12)
(20 1.6374632e-32 1.1726982e-12)
(20 3.7191285e-33 -4.1300064e-12)
(20 1.0345041e-32 -5.3090969e-12)
(20 -2.2195588e-33 -1.0773257e-12)
(20 -7.4561532e-33 -1.3572103e-12)
(20 -2.7382483e-33 -1.2098359e-12)
(20 -7.0399517e-33 3.679128e-12)
(20 2.1959978e-33 3.7184018e-12)
(20 -3.6730387e-35 5.4932442e-12)
(20 -1.1314774e-32 2.3414301e-12)
(20 -2.1895153e-33 2.4631276e-12)
(20 -7.4739274e-33 8.4932008e-13)
(20 0 -5.9227016e-12)
(20 1.2538112e-32 -1.1018509e-12)
(20 4.4521813e-33 2.2326861e-12)
(20 -3.3532498e-33 1.8524307e-12)
(20 -6.6767989e-34 -2.3477208e-12)
(20 1.635327e-33 4.0200431e-12)
(20 -2.0276905e-33 1.0530875e-11)
(20 -1.2017262e-33 3.3049614e-12)
(20 1.2200028e-33 -7.6813364e-12)
(20 -5.7314313e-34 -1.3505e-11)
(20 1.5037228e-33 -7.403357e-12)
(20 7.8067551e-34 2.6078478e-12)
(20 8.4757759e-34 5.9858527e-12)
(20 -1.096983e-32 -3.9509345e-12)
(20 8.9749454e-34 -8.3877166e-12)
(20 -1.3784385e-32 8.8095693e-12)
(20 -2.0395317e-33 1.0709859e-11)
(20 7.2820249e-34 -4.149821e-12)
(20 3.6164491e-33 -6.3445923e-12)
(20 -8.5004996e-36 -6.4382336e-12)
(20 1.6654892e-34 -4.4967921e-12)
(20 4.3691799e-33 3.6170286e-12)
(20 3.5234509e-33 7.1387112e-12)
(20 -4.9371003e-34 6.5404819e-13)
(20 6.6033605e-33 -1.0581182e-12)
(20 2.730686e-33 1.2602013e-12)
(20 1.2289849e-34 -2.6724332e-13)
(20 3.2868828e-33 1.1401588e-12)
(20 -1.0398522e-32 -3.8426404e-12)
(20 -7.761629e-33 4.4597381e-13)
(20 2.1548334e-33 4.8999301e-13)
(20.500839 2.4631824e-20 -0.1550374)
(20.764785 -1.6939235e-22 -4.3017218)
(19.937901 5.9144857e-22 -2.5849608)
(20.650181 1.0411121e-22 -2.1262126)
(20.028715 6.2385217e-22 -3.5637392)
(20.347955 9.4315155e-22 -1.8831132)
(20.015394 -6.5533728e-21 -3.2659366)
(20.074943 -6.3251998e-22 -2.5170339)
(20.005447 3.1189341e-22 -2.5102073)
(19.943083 2.444253e-20 -2.4677655)
(19.772676 3.7703572e-22 -3.0215808)
(19.653959 7.4423931e-21 -3.0784694)
(19.667759 1.9718135e-20 -2.4659569)
(19.744305 1.0619319e-21 -1.6712672)
(19.869009 -1.7066267e-20 -0.79537463)
(19.948434 -3.7290484e-22 -0.29642264)
(19.987216 1.4011993e-21 -0.070202494)
(19.998134 2.7005936e-22 -0.0099259465)
(20.000113 1.728643e-24 0.0006544449)
(20.00012 6.0518525e-24 0.00061145017)
(20.000035 9.4096297e-27 0.00017817683)
(20.000003 -4.7867873e-25 1.4634103e-05)
(20 -1.2578884e-27 -1.8119117e-06)
(20 -1.2178349e-27 -9.5432387e-07)
(20 -2.6058649e-27 -1.1364516e-07)
(20 -1.8166081e-28 2.403157e-09)
(20 -3.3028252e-30 3.2023352e-09)
(20 -7.9676855e-30 3.7332864e-10)
(20 -6.2414317e-32 -9.5538441e-12)
(20 8.0001686e-32 -6.0010194e-12)
(20 1.8245099e-32 5.0336646e-13)
(20 4.5340561e-33 -1.226727e-12)
(20 1.1955271e-33 1.7304544e-12)
(20 5.9726142e-35 1.0301675e-12)