# Solver information
# Time          	U_solver        	Ux_initial      	Ux_final        	Ux_iters        	Uz_initial      	Uz_final        	Uz_iters        	U_converged     	e_solver        	e_initial       	e_final         	e_iters         	e_converged     	k_solver        	k_initial       	k_final         	k_iters         	k_converged     	omega_solver    	omega_initial   	omega_final     	omega_iters     	omega_converged 	p_solver        	p_initial       	p_final         	p_iters         	p_converged     
1.2e-09         	smoothSolver	9.99939590e-01	4.48337370e-05	1000	1.00000000e+00	5.99709000e-15	1	false	smoothSolver	9.99892710e-01	1.19315420e-08	1	true	DILUPBiCGStab	1.00000000e+00	3.43202990e-11	1	true	DILUPBiCGStab	8.05842030e-08	8.05842030e-08	0	true	GAMG	9.99999980e-01	9.88179960e-10	1	true
2.64e-09        	smoothSolver	1.18376000e-05	3.50107040e-10	1	3.74994850e-01	5.89329800e-15	1	false	smoothSolver	1.49251410e-02	1.46610230e-10	1	true	DILUPBiCGStab	2.05502340e-02	9.79190200e-13	1	true	DILUPBiCGStab	9.57338730e-08	9.57338730e-08	0	true	GAMG	1.49236290e-02	1.19936860e-11	1	true
4.368e-09       	smoothSolver	8.23287530e-06	1.57723280e-10	1	3.01687730e-01	7.00524170e-15	1	false	smoothSolver	8.19666000e-03	6.80066910e-11	1	true	DILUPBiCGStab	1.13150440e-02	7.76405650e-13	1	true	DILUPBiCGStab	1.14883120e-07	1.14883120e-07	0	true	GAMG	8.19520390e-03	5.62690810e-12	1	true
6.4416e-09      	smoothSolver	7.51641040e-06	9.68909110e-11	1	2.60226860e-01	8.77533900e-15	1	false	smoothSolver	5.95862170e-03	4.10229550e-11	1	true	DILUPBiCGStab	8.23240210e-03	8.13441550e-13	1	true	DILUPBiCGStab	1.37863350e-07	1.37863350e-07	0	true	GAMG	5.95686800e-03	4.02594130e-12	1	true
8.92992e-09     	smoothSolver	7.62467550e-06	6.62225820e-11	1	2.33636020e-01	1.13831800e-14	1	false	smoothSolver	4.85441980e-03	2.77252500e-11	1	true	DILUPBiCGStab	6.70938470e-03	9.54676050e-13	1	true	DILUPBiCGStab	1.65441250e-07	1.65441250e-07	0	true	GAMG	4.85227870e-03	2.54025080e-12	1	true
1.19159e-08     	smoothSolver	8.22872960e-06	4.55279700e-11	1	2.15346880e-01	1.51800990e-14	1	false	smoothSolver	4.20530570e-03	1.98138600e-11	1	true	DILUPBiCGStab	5.81335110e-03	1.19116460e-12	1	true	DILUPBiCGStab	1.98537030e-07	1.98537030e-07	0	true	GAMG	4.20269880e-03	2.09679800e-12	1	true
1.54991e-08     	smoothSolver	9.30615570e-06	3.48510540e-11	1	2.02175690e-01	2.05800490e-14	1	false	smoothSolver	3.78394230e-03	1.49247240e-11	1	true	DILUPBiCGStab	5.23134280e-03	1.54358800e-12	1	true	DILUPBiCGStab	2.38255510e-07	2.38255510e-07	0	true	GAMG	3.78077950e-03	1.28914180e-12	1	true
1.97989e-08     	smoothSolver	1.07542630e-05	2.73156870e-11	1	1.92376890e-01	2.82567670e-14	1	false	smoothSolver	3.49258990e-03	1.12433360e-11	1	true	DILUPBiCGStab	4.82867000e-03	2.05173920e-12	1	true	DILUPBiCGStab	2.85922290e-07	2.85922290e-07	0	true	GAMG	3.48876400e-03	1.04693090e-12	1	true
2.49587e-08     	smoothSolver	1.25856390e-05	2.12043030e-11	1	1.84910030e-01	3.91591180e-14	1	false	smoothSolver	3.28225920e-03	8.98457420e-12	1	true	DILUPBiCGStab	4.53777460e-03	2.77661770e-12	1	true	DILUPBiCGStab	3.43127980e-07	3.43127980e-07	0	true	GAMG	3.27764120e-03	7.41169220e-13	1	true
3.11504e-08     	smoothSolver	1.48344600e-05	1.66789260e-11	1	1.79116330e-01	5.46855230e-14	1	false	smoothSolver	3.12570140e-03	6.98780720e-12	1	true	DILUPBiCGStab	4.32105590e-03	3.80752140e-12	1	true	DILUPBiCGStab	4.11784340e-07	4.11784340e-07	0	true	GAMG	3.12013630e-03	6.07898110e-13	1	true
3.85805e-08     	smoothSolver	1.75645620e-05	1.37333370e-11	1	1.74557410e-01	7.67258780e-14	1	false	smoothSolver	3.00653850e-03	5.73189490e-12	1	true	DILUPBiCGStab	4.15589580e-03	5.27354140e-12	1	true	DILUPBiCGStab	4.94185190e-07	4.94185190e-07	0	true	GAMG	2.99984060e-03	5.09215230e-13	1	true
4.74965e-08     	smoothSolver	2.08680370e-05	1.11708810e-11	1	1.70928530e-01	1.05394030e-13	1	false	smoothSolver	2.91430610e-03	4.54900120e-12	1	true	DILUPBiCGStab	4.02782760e-03	7.35751200e-12	1	true	DILUPBiCGStab	5.93054280e-07	5.93054280e-07	0	true	GAMG	2.90625230e-03	4.11630640e-13	1	true
5.81958e-08     	smoothSolver	2.48376980e-05	8.98283520e-12	1	1.68015000e-01	1.40559990e-13	1	false	smoothSolver	2.84208230e-03	3.78212030e-12	1	true	DILUPBiCGStab	3.92727080e-03	1.03196610e-11	1	true	DILUPBiCGStab	7.11698460e-07	7.11698460e-07	0	true	GAMG	2.83240580e-03	3.10823430e-13	1	true
7.1035e-08      	smoothSolver	2.96161960e-05	7.28177260e-12	1	1.65658540e-01	1.84384620e-13	1	false	smoothSolver	2.78506260e-03	3.02000060e-12	1	true	DILUPBiCGStab	3.84756510e-03	1.45357170e-11	1	true	DILUPBiCGStab	8.54085480e-07	8.54085480e-07	0	true	GAMG	2.77344450e-03	2.71446790e-13	1	true
8.6442e-08      	smoothSolver	3.53460310e-05	5.87732620e-12	1	1.63738380e-01	2.40391390e-13	1	false	smoothSolver	2.73978440e-03	2.50345570e-12	1	true	DILUPBiCGStab	3.78389940e-03	2.05395350e-11	1	true	DILUPBiCGStab	1.02497120e-06	1.72438850e-14	1	true	GAMG	2.72584410e-03	2.47847950e-13	1	true
1.0493e-07      	smoothSolver	4.22164670e-05	4.89624580e-12	1	1.62168950e-01	3.07707060e-13	1	false	smoothSolver	2.70381810e-03	2.06737610e-12	1	true	DILUPBiCGStab	3.73294990e-03	2.91084410e-11	1	true	DILUPBiCGStab	1.22992100e-06	2.97966320e-14	1	true	GAMG	2.68708340e-03	1.76495360e-13	1	true
1.27117e-07     	smoothSolver	5.04461160e-05	3.99933400e-12	1	1.60876450e-01	3.90856200e-13	1	false	smoothSolver	2.67530250e-03	1.70597390e-12	1	true	DILUPBiCGStab	3.69202640e-03	4.13487250e-11	1	true	DILUPBiCGStab	1.47584890e-06	5.14866940e-14	1	true	GAMG	2.65523250e-03	1.28866340e-13	1	true
1.5374e-07      	smoothSolver	6.03045230e-05	3.33715580e-12	1	1.59804510e-01	4.94363680e-13	1	false	smoothSolver	2.65283100e-03	1.42152660e-12	1	true	DILUPBiCGStab	3.65914540e-03	5.88544200e-11	1	true	DILUPBiCGStab	1.77092870e-06	8.89610050e-14	1	true	GAMG	2.62878180e-03	1.21115240e-13	1	true
1.85688e-07     	smoothSolver	7.20927960e-05	2.71387950e-12	1	1.58911470e-01	6.22513250e-13	1	false	smoothSolver	2.63540850e-03	1.15487300e-12	1	true	DILUPBiCGStab	3.63287760e-03	8.39201520e-11	1	true	DILUPBiCGStab	2.12500190e-06	1.53706590e-13	1	true	GAMG	2.60661510e-03	1.02857350e-13	1	true
2.24026e-07     	smoothSolver	8.61788230e-05	2.30254440e-12	1	1.58163860e-01	7.79915840e-13	1	false	smoothSolver	2.62229580e-03	9.63296340e-13	1	true	DILUPBiCGStab	3.61213350e-03	1.19851120e-10	1	true	DILUPBiCGStab	2.54988810e-06	2.65573880e-13	1	true	GAMG	2.58785100e-03	8.50340110e-14	1	true
2.70031e-07     	smoothSolver	1.02991250e-04	1.84160590e-12	1	1.57528230e-01	9.68343350e-13	1	false	smoothSolver	2.61282870e-03	8.11397770e-13	1	true	DILUPBiCGStab	3.59591100e-03	1.71381240e-10	1	true	DILUPBiCGStab	3.05961340e-06	4.58804870e-13	1	true	GAMG	2.57166220e-03	7.64969280e-14	1	true
3.25237e-07     	smoothSolver	1.23041320e-04	1.53000600e-12	1	1.56987510e-01	1.19095880e-12	1	false	smoothSolver	2.60672820e-03	6.65037890e-13	1	true	DILUPBiCGStab	3.58372190e-03	2.45367690e-10	1	true	DILUPBiCGStab	3.67119970e-06	7.92630460e-13	1	true	GAMG	2.55757750e-03	5.17636530e-14	1	true
3.91485e-07     	smoothSolver	1.46919510e-04	1.29355190e-12	1	1.56516430e-01	1.46150410e-12	1	false	smoothSolver	2.60361700e-03	5.60145680e-13	1	true	DILUPBiCGStab	3.57491990e-03	3.51648440e-10	1	true	DILUPBiCGStab	4.40478820e-06	1.36916200e-12	1	true	GAMG	2.54500310e-03	4.69285630e-14	1	true
4.70983e-07     	smoothSolver	1.75318390e-04	1.01338060e-12	1	1.56100930e-01	1.82514990e-12	1	false	smoothSolver	2.60339350e-03	4.68423330e-13	1	true	DILUPBiCGStab	3.56921610e-03	5.04490500e-10	1	true	DILUPBiCGStab	5.28514630e-06	2.36476560e-12	1	true	GAMG	2.53358920e-03	3.95293300e-14	1	true
5.66376e-07     	smoothSolver	2.09017890e-04	8.58951480e-13	1	1.55715500e-01	2.29598120e-12	1	false	smoothSolver	2.60579190e-03	3.89465140e-13	1	true	DILUPBiCGStab	3.56610500e-03	7.24140910e-10	1	true	DILUPBiCGStab	6.34105820e-06	4.08263090e-12	1	true	GAMG	2.52279950e-03	4.09361230e-14	1	true
6.66379e-07     	smoothSolver	2.17498370e-04	6.94079660e-13	1	1.38456290e-01	1.92562290e-12	1	false	smoothSolver	2.28187790e-03	3.28467010e-13	1	true	DILUPBiCGStab	3.11599680e-03	6.94577230e-10	1	true	DILUPBiCGStab	6.64425720e-06	4.69850110e-12	1	true	GAMG	2.19621310e-03	3.51417540e-14	1	true
7.66383e-07     	smoothSolver	2.15429930e-04	6.01349980e-13	1	1.20395460e-01	1.42168830e-12	1	false	smoothSolver	1.94836930e-03	2.84345770e-13	1	true	DILUPBiCGStab	2.65458530e-03	5.91396250e-10	1	true	DILUPBiCGStab	6.63940580e-06	4.69165650e-12	1	true	GAMG	1.86410540e-03	3.02319430e-14	1	true
8.66386e-07     	smoothSolver	2.13189720e-04	5.16958860e-13	1	1.06688330e-01	1.06794250e-12	1	false	smoothSolver	1.70157730e-03	2.38285010e-13	1	true	DILUPBiCGStab	2.31328050e-03	5.15128500e-10	1	true	DILUPBiCGStab	6.63372340e-06	4.68354280e-12	1	true	GAMG	1.61861070e-03	2.41746520e-14	1	true
9.66389e-07     	smoothSolver	2.10964080e-04	4.52399660e-13	1	9.58740440e-02	8.15391200e-13	1	false	smoothSolver	1.51153860e-03	2.16238520e-13	1	true	DILUPBiCGStab	2.05056380e-03	4.56444960e-10	1	true	DILUPBiCGStab	6.62750900e-06	4.67437770e-12	1	true	GAMG	1.42978580e-03	2.21590180e-14	1	true
1.06639e-06     	smoothSolver	2.08765330e-04	4.05105390e-13	1	8.70963720e-02	6.24345380e-13	1	false	smoothSolver	1.36066980e-03	1.92674830e-13	1	true	DILUPBiCGStab	1.84207480e-03	4.09877150e-10	1	true	DILUPBiCGStab	6.62054460e-06	4.66403390e-12	1	true	GAMG	1.28006410e-03	2.01920670e-14	1	true
1.1664e-06      	smoothSolver	2.06603640e-04	3.64832740e-13	1	7.98145060e-02	4.42187100e-13	1	false	smoothSolver	1.23797210e-03	1.80385620e-13	1	true	DILUPBiCGStab	1.67258570e-03	3.71972280e-10	1	true	DILUPBiCGStab	6.61222410e-06	4.65156290e-12	1	true	GAMG	1.15845810e-03	1.77897260e-14	1	true
1.2664e-06      	smoothSolver	2.04479770e-04	3.32894080e-13	1	7.36675070e-02	3.24385830e-13	1	false	smoothSolver	1.13621170e-03	1.59750640e-13	1	true	DILUPBiCGStab	1.53207280e-03	3.40577440e-10	1	true	DILUPBiCGStab	6.60315560e-06	4.63859380e-12	1	true	GAMG	1.05774460e-03	1.86294800e-14	1	true
1.3664e-06      	smoothSolver	2.02360070e-04	3.01590840e-13	1	6.84040290e-02	2.47864840e-13	1	false	smoothSolver	1.05043660e-03	1.50905490e-13	1	true	DILUPBiCGStab	1.41367300e-03	3.14142080e-10	1	true	DILUPBiCGStab	6.59350860e-06	4.62496520e-12	1	true	GAMG	9.72978020e-04	1.55330260e-14	1	true
1.46641e-06     	smoothSolver	2.00217530e-04	2.74267950e-13	1	6.38430560e-02	1.94017790e-13	1	false	smoothSolver	9.77141930e-04	1.43189890e-13	1	true	DILUPBiCGStab	1.31254230e-03	2.91574270e-10	1	true	DILUPBiCGStab	6.58323710e-06	4.60981170e-12	1	true	GAMG	9.00659600e-04	1.47251370e-14	1	true
1.56641e-06     	smoothSolver	1.98063010e-04	2.59109970e-13	1	5.98505700e-02	1.53453200e-13	1	false	smoothSolver	9.13778080e-04	1.28244630e-13	1	true	DILUPBiCGStab	1.22515270e-03	2.72077770e-10	1	true	DILUPBiCGStab	6.57223300e-06	4.59294080e-12	1	true	GAMG	8.38243650e-04	1.33290340e-14	1	true
1.66641e-06     	smoothSolver	1.95922840e-04	2.37182010e-13	1	5.63250340e-02	1.23031920e-13	1	false	smoothSolver	8.58445280e-04	1.22911270e-13	1	true	DILUPBiCGStab	1.14887400e-03	2.55064660e-10	1	true	DILUPBiCGStab	6.56042360e-06	4.57494450e-12	1	true	GAMG	7.83833980e-04	1.34138670e-14	1	true
1.76642e-06     	smoothSolver	1.93807150e-04	2.19313950e-13	1	5.31879940e-02	1.00175520e-13	1	false	smoothSolver	8.09699620e-04	1.16228390e-13	1	true	DILUPBiCGStab	1.08170580e-03	2.40096660e-10	1	true	DILUPBiCGStab	6.54777000e-06	4.55613700e-12	1	true	GAMG	7.35989220e-04	1.14952640e-14	1	true
1.86642e-06     	smoothSolver	1.91726930e-04	2.09062890e-13	1	5.03778120e-02	8.29737170e-14	1	false	smoothSolver	7.66423560e-04	1.10866990e-13	1	true	DILUPBiCGStab	1.02210490e-03	2.26818780e-10	1	true	DILUPBiCGStab	6.53423940e-06	4.53661370e-12	1	true	GAMG	6.93594110e-04	1.28375430e-14	1	true
1.96642e-06     	smoothSolver	1.89684440e-04	1.98073780e-13	1	4.78453470e-02	6.95097820e-14	1	false	smoothSolver	7.27739120e-04	1.04522310e-13	1	true	DILUPBiCGStab	9.68854410e-04	2.14956680e-10	1	true	DILUPBiCGStab	6.51979740e-06	4.51638150e-12	1	true	GAMG	6.55772640e-04	1.08530910e-14	1	true
2.06643e-06     	smoothSolver	1.87676940e-04	1.81068190e-13	1	4.55509180e-02	5.82560560e-14	1	false	smoothSolver	6.92946620e-04	9.96081770e-14	1	true	DILUPBiCGStab	9.20985410e-04	2.04292940e-10	1	true	DILUPBiCGStab	6.50443980e-06	4.49537470e-12	1	true	GAMG	6.21826880e-04	1.05302070e-14	1	true
2.16643e-06     	smoothSolver	1.85725920e-04	1.77184780e-13	1	4.34621090e-02	4.97170660e-14	1	false	smoothSolver	6.61481920e-04	9.53057420e-14	1	true	DILUPBiCGStab	8.77716600e-04	1.94656730e-10	1	true	DILUPBiCGStab	6.48815810e-06	4.47360140e-12	1	true	GAMG	5.91193620e-04	1.01790290e-14	1	true
2.26643e-06     	smoothSolver	1.83817920e-04	1.64238800e-13	1	4.15521770e-02	4.30502760e-14	1	false	smoothSolver	6.32885690e-04	8.81528490e-14	1	true	DILUPBiCGStab	8.38411860e-04	1.85904840e-10	1	true	DILUPBiCGStab	6.47091910e-06	4.45103100e-12	1	true	GAMG	5.63414750e-04	9.30738960e-15	1	true
2.36644e-06     	smoothSolver	1.81945110e-04	1.53525200e-13	1	3.97988470e-02	3.73822610e-14	1	false	smoothSolver	6.06778200e-04	8.85642070e-14	1	true	DILUPBiCGStab	8.02549740e-04	1.77920230e-10	1	true	DILUPBiCGStab	6.45272800e-06	4.42765130e-12	1	true	GAMG	5.38111400e-04	9.02555340e-15	1	true
2.46644e-06     	smoothSolver	1.80104430e-04	1.48931960e-13	1	3.81834180e-02	3.25188130e-14	1	false	smoothSolver	5.82844030e-04	8.18550660e-14	1	true	DILUPBiCGStab	7.69701340e-04	1.70607150e-10	1	true	DILUPBiCGStab	6.43357630e-06	4.40343600e-12	1	true	GAMG	5.14969180e-04	9.04967010e-15	1	true
2.56644e-06     	smoothSolver	1.78294440e-04	1.39902730e-13	1	3.66900650e-02	2.83798940e-14	1	false	smoothSolver	5.60818910e-04	7.87611510e-14	1	true	DILUPBiCGStab	7.39495910e-04	1.63881780e-10	1	true	DILUPBiCGStab	6.41347350e-06	4.37838440e-12	1	true	GAMG	4.93724460e-04	8.84842320e-15	1	true
2.66645e-06     	smoothSolver	1.76513180e-04	1.37964080e-13	1	3.53053110e-02	2.48615390e-14	1	false	smoothSolver	5.40480050e-04	7.57711200e-14	1	true	DILUPBiCGStab	7.11735390e-04	1.57905410e-10	1	true	DILUPBiCGStab	6.39201130e-06	4.35233330e-12	1	true	GAMG	4.74154980e-04	7.47447160e-15	1	true
2.76645e-06     	smoothSolver	1.74750060e-04	1.31504720e-13	1	3.40168930e-02	2.19052890e-14	1	false	smoothSolver	5.21636270e-04	7.29409400e-14	1	true	DILUPBiCGStab	6.85922830e-04	1.52146310e-10	1	true	DILUPBiCGStab	6.36999880e-06	4.32559380e-12	1	true	GAMG	4.56079720e-04	6.73848550e-15	1	true
2.86645e-06     	smoothSolver	1.73016450e-04	1.24642340e-13	1	3.28157120e-02	1.94910810e-14	1	false	smoothSolver	5.04126710e-04	7.24089970e-14	1	true	DILUPBiCGStab	6.61960290e-04	1.46799350e-10	1	true	DILUPBiCGStab	6.34704420e-06	4.29801950e-12	1	true	GAMG	4.39327740e-04	6.25411840e-15	1	true
2.96646e-06     	smoothSolver	1.71309120e-04	1.19678720e-13	1	3.16930960e-02	1.74966480e-14	1	false	smoothSolver	4.87812680e-04	7.02868690e-14	1	true	DILUPBiCGStab	6.39655260e-04	1.41822960e-10	1	true	DILUPBiCGStab	6.32316550e-06	4.26961060e-12	1	true	GAMG	4.23760610e-04	7.86861640e-15	1	true
3.06646e-06     	smoothSolver	1.69629680e-04	1.13442530e-13	1	3.06414890e-02	1.58159040e-14	1	false	smoothSolver	4.72573390e-04	6.77114700e-14	1	true	DILUPBiCGStab	6.18837440e-04	1.37177740e-10	1	true	DILUPBiCGStab	6.29837800e-06	4.24037480e-12	1	true	GAMG	4.09257960e-04	6.12311290e-15	1	true
3.16646e-06     	smoothSolver	1.67976850e-04	1.07493510e-13	1	2.96542770e-02	1.43823550e-14	1	false	smoothSolver	4.58304030e-04	6.54650850e-14	1	true	DILUPBiCGStab	5.99361670e-04	1.32831550e-10	1	true	DILUPBiCGStab	6.27268160e-06	4.21033190e-12	1	true	GAMG	3.95715060e-04	6.58021130e-15	1	true
3.26647e-06     	smoothSolver	1.66349430e-04	1.04130020e-13	1	2.87256500e-02	1.31544520e-14	1	false	smoothSolver	4.44913120e-04	6.34133820e-14	1	true	DILUPBiCGStab	5.81103960e-04	1.28759960e-10	1	true	DILUPBiCGStab	6.24608750e-06	4.17949490e-12	1	true	GAMG	3.83040730e-04	5.78670910e-15	1	true
3.36647e-06     	smoothSolver	1.64746300e-04	1.00537480e-13	1	2.78504770e-02	1.21053690e-14	1	false	smoothSolver	4.32320180e-04	6.15509850e-14	1	true	DILUPBiCGStab	5.63952500e-04	1.24935190e-10	1	true	DILUPBiCGStab	6.21862060e-06	4.14786880e-12	1	true	GAMG	3.71154940e-04	5.57028000e-15	1	true
3.46647e-06     	smoothSolver	1.63166930e-04	9.84113680e-14	1	2.70242130e-02	1.11796620e-14	1	false	smoothSolver	4.20454360e-04	6.03265810e-14	1	true	DILUPBiCGStab	5.47808530e-04	1.21335160e-10	1	true	DILUPBiCGStab	6.19029230e-06	4.11546660e-12	1	true	GAMG	3.59987060e-04	5.78776630e-15	1	true
3.56648e-06     	smoothSolver	1.61610340e-04	9.50953340e-14	1	2.62428160e-02	1.03497390e-14	1	false	smoothSolver	4.09252970e-04	5.67716600e-14	1	true	DILUPBiCGStab	5.32586210e-04	1.17942790e-10	1	true	DILUPBiCGStab	6.16108040e-06	4.08229780e-12	1	true	GAMG	3.49474610e-04	5.15102120e-15	1	true
3.66648e-06     	smoothSolver	1.60075210e-04	9.05680210e-14	1	2.55026750e-02	9.53924670e-15	1	false	smoothSolver	3.98660520e-04	5.70297250e-14	1	true	DILUPBiCGStab	5.18208190e-04	1.14739800e-10	1	true	DILUPBiCGStab	6.13102930e-06	4.04838590e-12	1	true	GAMG	3.39562430e-04	4.67526070e-15	1	true
3.76648e-06     	smoothSolver	1.58560860e-04	8.76317660e-14	1	2.48005610e-02	8.83994080e-15	1	false	smoothSolver	3.88627290e-04	5.58009240e-14	1	true	DILUPBiCGStab	5.04604660e-04	1.11709990e-10	1	true	DILUPBiCGStab	6.10014720e-06	4.01375460e-12	1	true	GAMG	3.30201050e-04	4.82708240e-15	1	true
3.86649e-06     	smoothSolver	1.57066640e-04	8.48592440e-14	1	2.41335750e-02	8.22947450e-15	1	false	smoothSolver	3.79109000e-04	5.41291770e-14	1	true	DILUPBiCGStab	4.91714150e-04	1.08839680e-10	1	true	DILUPBiCGStab	6.06845110e-06	3.97842600e-12	1	true	GAMG	3.21346340e-04	4.41303390e-15	1	true
3.96649e-06     	smoothSolver	1.55591900e-04	8.15656760e-14	1	2.34991030e-02	7.69481150e-15	1	false	smoothSolver	3.70066000e-04	5.26236030e-14	1	true	DILUPBiCGStab	4.79482100e-04	1.06116600e-10	1	true	DILUPBiCGStab	6.03593080e-06	3.94242000e-12	1	true	GAMG	3.12958740e-04	5.16107330e-15	1	true
4.06649e-06     	smoothSolver	1.53553610e-04	7.94859560e-14	1	2.28947880e-02	7.24349010e-15	1	false	smoothSolver	3.61459280e-04	5.16783060e-14	1	true	DILUPBiCGStab	4.67851410e-04	1.03546080e-10	1	true	DILUPBiCGStab	6.00264700e-06	3.90575240e-12	1	true	GAMG	3.05002690e-04	4.93012960e-15	1	true
4.1665e-06      	smoothSolver	1.50530570e-04	7.59973470e-14	1	2.23182160e-02	6.83926210e-15	1	false	smoothSolver	3.53260050e-04	5.05733700e-14	1	true	DILUPBiCGStab	4.56764260e-04	1.01143740e-10	1	true	DILUPBiCGStab	5.96861950e-06	3.86842740e-12	1	true	GAMG	2.97452060e-04	4.03209880e-15	1	true
4.2665e-06      	smoothSolver	1.47495450e-04	7.37835600e-14	1	2.17668060e-02	6.47036110e-15	1	false	smoothSolver	3.45458090e-04	4.93277490e-14	1	true	DILUPBiCGStab	4.46204080e-04	9.88898180e-11	1	true	DILUPBiCGStab	5.93279340e-06	3.83026810e-12	1	true	GAMG	2.90288240e-04	4.56090750e-15	1	true
4.3665e-06      	smoothSolver	1.44578140e-04	7.39937270e-14	1	2.12385110e-02	6.13330810e-15	1	false	smoothSolver	3.38018420e-04	4.87711340e-14	1	true	DILUPBiCGStab	4.36114760e-04	9.67647630e-11	1	true	DILUPBiCGStab	5.89220610e-06	3.79021840e-12	1	true	GAMG	2.83479500e-04	4.18218680e-15	1	true
4.46651e-06     	smoothSolver	1.41353180e-04	7.11904370e-14	1	2.07316280e-02	5.83314680e-15	1	false	smoothSolver	3.30912710e-04	4.85469560e-14	1	true	DILUPBiCGStab	4.26466090e-04	9.47693630e-11	1	true	DILUPBiCGStab	5.84275860e-06	3.74583800e-12	1	true	GAMG	2.76998190e-04	4.33221280e-15	1	true
4.56651e-06     	smoothSolver	1.37712830e-04	6.67118480e-14	1	2.02446310e-02	5.56764140e-15	1	false	smoothSolver	3.24111580e-04	4.61094870e-14	1	true	DILUPBiCGStab	4.17231090e-04	9.29578510e-11	1	true	DILUPBiCGStab	5.77979410e-06	3.69328640e-12	1	true	GAMG	2.70817150e-04	4.77051220e-15	1	true
4.66651e-06     	smoothSolver	1.33553810e-04	6.75767550e-14	1	1.97760670e-02	5.32173620e-15	1	false	smoothSolver	3.17590020e-04	4.47365500e-14	1	true	DILUPBiCGStab	4.08391140e-04	9.14293610e-11	1	true	DILUPBiCGStab	5.70019400e-06	3.62879150e-12	1	true	GAMG	2.64911550e-04	3.72637880e-15	1	true
4.76652e-06     	smoothSolver	1.28990040e-04	6.49125710e-14	1	1.93245910e-02	5.11066770e-15	1	false	smoothSolver	3.11320510e-04	4.40386840e-14	1	true	DILUPBiCGStab	3.99917750e-04	9.02921770e-11	1	true	DILUPBiCGStab	5.60384150e-06	3.54960490e-12	1	true	GAMG	2.59257940e-04	4.09576930e-15	1	true
4.86652e-06     	smoothSolver	1.24574090e-04	6.28867460e-14	1	1.88889630e-02	4.93542420e-15	1	false	smoothSolver	3.05283530e-04	4.36563490e-14	1	true	DILUPBiCGStab	3.91788690e-04	8.94050850e-11	1	true	DILUPBiCGStab	5.49962320e-06	3.46397260e-12	1	true	GAMG	2.53838410e-04	3.97445980e-15	1	true
4.96652e-06     	smoothSolver	1.20493410e-04	6.27661060e-14	1	1.84683090e-02	4.76082560e-15	1	false	smoothSolver	2.99464060e-04	4.25029590e-14	1	true	DILUPBiCGStab	3.83968430e-04	8.85738710e-11	1	true	DILUPBiCGStab	5.39557110e-06	3.37907360e-12	1	true	GAMG	2.48641770e-04	3.42242170e-15	1	true
5.06653e-06     	smoothSolver	1.16558640e-04	6.11102310e-14	1	1.80619950e-02	4.61596830e-15	1	false	smoothSolver	2.93862160e-04	4.03641210e-14	1	true	DILUPBiCGStab	3.76451280e-04	8.77478230e-11	1	true	DILUPBiCGStab	5.29218800e-06	3.29483470e-12	1	true	GAMG	2.43660020e-04	3.54888680e-15	1	true
5.16653e-06     	smoothSolver	1.12759100e-04	5.71362180e-14	1	1.76695690e-02	4.48243820e-15	1	false	smoothSolver	2.88455280e-04	4.13927990e-14	1	true	DILUPBiCGStab	3.69189750e-04	8.69592890e-11	1	true	DILUPBiCGStab	5.18947890e-06	3.21127110e-12	1	true	GAMG	2.38878930e-04	3.86269770e-15	1	true
5.26653e-06     	smoothSolver	1.09068110e-04	5.65588780e-14	1	1.72904510e-02	4.34921190e-15	1	false	smoothSolver	2.83246750e-04	4.03172680e-14	1	true	DILUPBiCGStab	3.62197210e-04	8.61296440e-11	1	true	DILUPBiCGStab	5.08734810e-06	3.12838820e-12	1	true	GAMG	2.34289430e-04	3.11597020e-15	1	true
5.36654e-06     	smoothSolver	1.05501820e-04	5.46001200e-14	1	1.69242440e-02	4.21264510e-15	1	false	smoothSolver	2.78210000e-04	3.99128110e-14	1	true	DILUPBiCGStab	3.55432550e-04	8.52646500e-11	1	true	DILUPBiCGStab	4.98581320e-06	3.04618210e-12	1	true	GAMG	2.29876380e-04	3.82987820e-15	1	true
5.46654e-06     	smoothSolver	1.02052420e-04	5.43558510e-14	1	1.65704550e-02	4.07520780e-15	1	false	smoothSolver	2.73344710e-04	3.92211600e-14	1	true	DILUPBiCGStab	3.48878980e-04	8.43263290e-11	1	true	DILUPBiCGStab	4.88484840e-06	2.96465600e-12	1	true	GAMG	2.25633620e-04	3.69321680e-15	1	true
5.56654e-06     	smoothSolver	9.87035940e-05	5.28283030e-14	1	1.62286620e-02	3.93970820e-15	1	false	smoothSolver	2.68639450e-04	3.86656600e-14	1	true	DILUPBiCGStab	3.42536780e-04	8.32701150e-11	1	true	DILUPBiCGStab	4.78442900e-06	2.88381270e-12	1	true	GAMG	2.21550280e-04	3.10843190e-15	1	true
5.66655e-06     	smoothSolver	9.54530630e-05	5.16209720e-14	1	1.58984710e-02	3.79888350e-15	1	false	smoothSolver	2.64082570e-04	3.80466960e-14	1	true	DILUPBiCGStab	3.36434160e-04	8.20135000e-11	1	true	DILUPBiCGStab	4.68447400e-06	2.80364900e-12	1	true	GAMG	2.17613440e-04	3.46844310e-15	1	true
5.76655e-06     	smoothSolver	9.22935300e-05	5.08849260e-14	1	1.55795210e-02	3.67241250e-15	1	false	smoothSolver	2.59657550e-04	3.63547180e-14	1	true	DILUPBiCGStab	3.30523860e-04	8.04817130e-11	1	true	DILUPBiCGStab	4.58495820e-06	2.72415570e-12	1	true	GAMG	2.13810930e-04	3.48660050e-15	1	true
5.86655e-06     	smoothSolver	8.92282260e-05	5.04516950e-14	1	1.52714670e-02	3.54774120e-15	1	false	smoothSolver	2.55356820e-04	3.65080910e-14	1	true	DILUPBiCGStab	3.24792430e-04	7.86405250e-11	1	true	DILUPBiCGStab	4.48586170e-06	2.64532810e-12	1	true	GAMG	2.10134430e-04	3.19716520e-15	1	true
5.96656e-06     	smoothSolver	8.62315360e-05	4.89812630e-14	1	1.49739960e-02	3.42480210e-15	1	false	smoothSolver	2.51172580e-04	3.58807360e-14	1	true	DILUPBiCGStab	3.19226730e-04	7.64523750e-11	1	true	DILUPBiCGStab	4.38716070e-06	2.56715630e-12	1	true	GAMG	2.06575940e-04	3.69893000e-15	1	true
6.06656e-06     	smoothSolver	8.33022510e-05	4.66363820e-14	1	1.46868280e-02	3.31794410e-15	1	false	smoothSolver	2.47096610e-04	3.52158650e-14	1	true	DILUPBiCGStab	3.13812980e-04	7.38978450e-11	1	true	DILUPBiCGStab	4.28883630e-06	2.48963370e-12	1	true	GAMG	2.03127360e-04	2.80884080e-15	1	true
6.16656e-06     	smoothSolver	8.04273990e-05	4.59396040e-14	1	1.44097330e-02	3.21755750e-15	1	false	smoothSolver	2.43119770e-04	3.55815580e-14	1	true	DILUPBiCGStab	3.08824630e-04	7.10351140e-11	1	true	DILUPBiCGStab	4.19083930e-06	2.41273030e-12	1	true	GAMG	1.99780420e-04	3.05073040e-15	1	true
6.26657e-06     	smoothSolver	7.76025720e-05	4.54730460e-14	1	1.41425420e-02	3.12261730e-15	1	false	smoothSolver	2.39231280e-04	3.47348200e-14	1	true	DILUPBiCGStab	3.07722770e-04	6.82059620e-11	1	true	DILUPBiCGStab	4.09321920e-06	2.33643860e-12	1	true	GAMG	1.96526370e-04	3.31995530e-15	1	true
6.36657e-06     	smoothSolver	7.48273800e-05	4.49290700e-14	1	1.38851700e-02	3.02623390e-15	1	false	smoothSolver	2.35417740e-04	3.32610020e-14	1	true	DILUPBiCGStab	3.08639490e-04	6.55394950e-11	1	true	DILUPBiCGStab	3.99567410e-06	2.26070220e-12	1	true	GAMG	1.93355370e-04	2.75671900e-15	1	true
6.46657e-06     	smoothSolver	7.21031000e-05	4.30604840e-14	1	1.36368370e-02	2.93835800e-15	1	false	smoothSolver	2.31731230e-04	3.22954160e-14	1	true	DILUPBiCGStab	3.09421820e-04	6.32091060e-11	1	true	DILUPBiCGStab	3.89775500e-06	2.18548200e-12	1	true	GAMG	1.90288680e-04	2.98659650e-15	1	true
6.56658e-06     	smoothSolver	6.94452470e-05	4.26467660e-14	1	1.33962700e-02	2.85830500e-15	1	false	smoothSolver	2.28238240e-04	3.29239350e-14	1	true	DILUPBiCGStab	3.11800750e-04	6.11730930e-11	1	true	DILUPBiCGStab	3.79941170e-06	2.11070570e-12	1	true	GAMG	1.87356000e-04	3.06528180e-15	1	true
6.66658e-06     	smoothSolver	6.75123580e-05	4.34381280e-14	1	1.31628890e-02	2.78068280e-15	1	false	smoothSolver	2.24890240e-04	3.16822450e-14	1	true	DILUPBiCGStab	3.21767820e-04	5.80098420e-11	1	true	DILUPBiCGStab	3.70060630e-06	2.03629600e-12	1	true	GAMG	1.84550860e-04	2.74534650e-15	1	true
6.76658e-06     	smoothSolver	6.72736000e-05	4.09079710e-14	1	1.29343560e-02	2.70310550e-15	1	false	smoothSolver	2.21648860e-04	3.16120030e-14	1	true	DILUPBiCGStab	3.23533920e-04	5.67024230e-11	1	true	DILUPBiCGStab	3.60088000e-06	1.96218690e-12	1	true	GAMG	1.81987340e-04	3.09999870e-15	1	true
6.86659e-06     	smoothSolver	6.74621780e-05	4.10605830e-14	1	1.27125700e-02	2.64230940e-15	1	false	smoothSolver	2.18556100e-04	3.15882450e-14	1	true	DILUPBiCGStab	3.25507940e-04	5.55654840e-11	1	true	DILUPBiCGStab	3.50041950e-06	1.88833240e-12	1	true	GAMG	1.79520780e-04	2.98997090e-15	1	true
6.96659e-06     	smoothSolver	6.77237390e-05	3.99654420e-14	1	1.24973770e-02	2.57804180e-15	1	false	smoothSolver	2.15558640e-04	3.12695640e-14	1	true	DILUPBiCGStab	3.27304860e-04	5.46702000e-11	1	true	DILUPBiCGStab	3.39893140e-06	1.81464140e-12	1	true	GAMG	1.77128830e-04	2.69723320e-15	1	true
7.06659e-06     	smoothSolver	6.80500020e-05	3.79673000e-14	1	1.22883260e-02	2.51985310e-15	1	false	smoothSolver	2.12681800e-04	3.04421820e-14	1	true	DILUPBiCGStab	3.29260030e-04	5.40921960e-11	1	true	DILUPBiCGStab	3.29622310e-06	1.74100500e-12	1	true	GAMG	1.74820170e-04	3.02677860e-15	1	true
7.1666e-06      	smoothSolver	6.84298480e-05	3.84189050e-14	1	1.20852200e-02	2.46445180e-15	1	false	smoothSolver	2.09904000e-04	3.00590250e-14	1	true	DILUPBiCGStab	3.31859280e-04	5.39218190e-11	1	true	DILUPBiCGStab	3.19208710e-06	1.66728990e-12	1	true	GAMG	1.72585400e-04	2.71497900e-15	1	true
7.2666e-06      	smoothSolver	6.89769840e-05	3.78154880e-14	1	1.18879230e-02	2.39831260e-15	1	false	smoothSolver	2.07206650e-04	2.95268890e-14	1	true	DILUPBiCGStab	3.34973410e-04	5.43029050e-11	1	true	DILUPBiCGStab	3.08618010e-06	1.59330040e-12	1	true	GAMG	1.70416210e-04	2.61440730e-15	1	true
7.3666e-06      	smoothSolver	6.97312060e-05	3.75995900e-14	1	1.16955650e-02	2.34591920e-15	1	false	smoothSolver	2.04583340e-04	2.93761500e-14	1	true	DILUPBiCGStab	3.41075090e-04	5.52478190e-11	1	true	DILUPBiCGStab	2.97811520e-06	1.51887060e-12	1	true	GAMG	1.68392880e-04	2.57939180e-15	1	true
7.46661e-06     	smoothSolver	7.09624820e-05	3.65093670e-14	1	1.15085240e-02	2.27719060e-15	1	false	smoothSolver	2.02035350e-04	2.87236600e-14	1	true	DILUPBiCGStab	3.47371460e-04	5.67342780e-11	1	true	DILUPBiCGStab	2.86745170e-06	1.44377230e-12	1	true	GAMG	1.66456130e-04	2.54675180e-15	1	true
7.56661e-06     	smoothSolver	7.28700390e-05	3.64766270e-14	1	1.13269870e-02	2.21901120e-15	1	false	smoothSolver	1.99564230e-04	2.98047860e-14	1	true	DILUPBiCGStab	3.54991580e-04	5.85193660e-11	1	true	DILUPBiCGStab	2.75363930e-06	1.36770740e-12	1	true	GAMG	1.64572090e-04	2.51856450e-15	1	true
7.66661e-06     	smoothSolver	7.56257670e-05	3.51518200e-14	1	1.11508820e-02	2.15185350e-15	1	false	smoothSolver	1.97170720e-04	2.78622720e-14	1	true	DILUPBiCGStab	3.62880070e-04	6.03904940e-11	1	true	DILUPBiCGStab	2.63596320e-06	1.29033350e-12	1	true	GAMG	1.62740890e-04	2.63687690e-15	1	true
7.76662e-06     	smoothSolver	7.89251120e-05	3.44063520e-14	1	1.09801000e-02	2.09923940e-15	1	false	smoothSolver	1.94872570e-04	2.70958660e-14	1	true	DILUPBiCGStab	3.69450530e-04	6.17839170e-11	1	true	DILUPBiCGStab	2.51928960e-06	1.21221140e-12	1	true	GAMG	1.60965730e-04	2.48366140e-15	1	true
7.86662e-06     	smoothSolver	8.17071720e-05	3.34064290e-14	1	1.08143260e-02	2.03373600e-15	1	false	smoothSolver	1.92635320e-04	2.69278010e-14	1	true	DILUPBiCGStab	3.73071520e-04	6.19401790e-11	1	true	DILUPBiCGStab	2.41397750e-06	1.13549980e-12	1	true	GAMG	1.59226290e-04	2.43637420e-15	1	true
7.96662e-06     	smoothSolver	8.34011170e-05	3.42216180e-14	1	1.06529540e-02	1.97635510e-15	1	false	smoothSolver	1.90419800e-04	2.70516830e-14	1	true	DILUPBiCGStab	3.74639940e-04	6.20047940e-11	1	true	DILUPBiCGStab	2.31744160e-06	1.06207170e-12	1	true	GAMG	1.57500470e-04	2.40525690e-15	1	true
8.06663e-06     	smoothSolver	8.42021960e-05	3.33261040e-14	1	1.04953740e-02	1.91920830e-15	1	false	smoothSolver	1.88223570e-04	2.68787980e-14	1	true	DILUPBiCGStab	3.75352600e-04	6.48547460e-11	1	true	DILUPBiCGStab	2.22706180e-06	9.90348090e-13	1	true	GAMG	1.55787380e-04	2.48131610e-15	1	true