# Solver information
# Time          	U_solver        	Ux_initial      	Ux_final        	Ux_iters        	Uz_initial      	Uz_final        	Uz_iters        	U_converged     	e_solver        	e_initial       	e_final         	e_iters         	e_converged     	k_solver        	k_initial       	k_final         	k_iters         	k_converged     	omega_solver    	omega_initial   	omega_final     	omega_iters     	omega_converged 	p_solver        	p_initial       	p_final         	p_iters         	p_converged     
1.20048e-08     	smoothSolver	9.99999960e-01	3.01579460e-08	1	1.00000000e+00	5.97759910e-13	1	false	smoothSolver	9.99863930e-01	1.44656760e-08	1	true	DILUPBiCGStab	1.00000000e+00	1.57776980e-11	1	true	DILUPBiCGStab	1.00280140e-07	1.00280140e-07	0	true	GAMG	9.99999980e-01	1.09165900e-09	1	true
2.64175e-08     	smoothSolver	1.45807420e-02	3.72233820e-10	1	3.75110870e-01	8.99831320e-13	1	false	smoothSolver	1.49737630e-02	1.86563290e-10	1	true	DILUPBiCGStab	1.25810090e-01	3.70466570e-12	1	true	DILUPBiCGStab	1.10613290e-07	1.10613290e-07	0	true	GAMG	1.49541740e-02	1.68799940e-11	1	true
4.37027e-08     	smoothSolver	8.00746290e-03	1.63421720e-10	1	3.02952630e-01	1.05036780e-12	1	false	smoothSolver	8.20942630e-03	8.74062660e-11	1	true	DILUPBiCGStab	7.27178290e-02	3.06879150e-12	1	true	DILUPBiCGStab	1.32557090e-07	1.32557090e-07	0	true	GAMG	8.20366900e-03	7.07060690e-12	1	true
6.4445e-08      	smoothSolver	5.82837470e-03	9.50788800e-11	1	2.61294120e-01	1.30802600e-12	1	false	smoothSolver	5.96859900e-03	5.08349160e-11	1	true	DILUPBiCGStab	5.38151610e-02	3.27480840e-12	1	true	DILUPBiCGStab	1.58933320e-07	1.58933320e-07	0	true	GAMG	5.96517000e-03	4.02126810e-12	1	true
8.93462e-08     	smoothSolver	4.75672110e-03	6.30674970e-11	1	2.34512570e-01	1.69578630e-12	1	false	smoothSolver	4.86603330e-03	3.56965480e-11	1	true	DILUPBiCGStab	4.42472080e-02	3.87765820e-12	1	true	DILUPBiCGStab	1.90608750e-07	1.90608750e-07	0	true	GAMG	4.86319210e-03	2.42447250e-12	1	true
1.19198e-07     	smoothSolver	4.12191740e-03	4.39849520e-11	1	2.15818080e-01	2.24797790e-12	1	false	smoothSolver	4.21242150e-03	2.54810310e-11	1	true	DILUPBiCGStab	3.84832410e-02	4.84724710e-12	1	true	DILUPBiCGStab	2.28227160e-07	2.28227160e-07	0	true	GAMG	4.20962230e-03	2.26383590e-12	1	true
1.54998e-07     	smoothSolver	3.71279140e-03	3.09467550e-11	1	2.02430020e-01	3.01032750e-12	1	false	smoothSolver	3.79067680e-03	1.92713870e-11	1	true	DILUPBiCGStab	3.47208430e-02	6.30322010e-12	1	true	DILUPBiCGStab	2.73253260e-07	2.73253260e-07	0	true	GAMG	3.78765130e-03	1.40904820e-12	1	true
1.97989e-07     	smoothSolver	3.43551950e-03	2.28569490e-11	1	1.92675940e-01	3.91393410e-12	1	false	smoothSolver	3.50439120e-03	1.50287460e-11	1	true	DILUPBiCGStab	3.21405710e-02	8.42118880e-12	1	true	DILUPBiCGStab	3.27335710e-07	3.27335710e-07	0	true	GAMG	3.50095470e-03	1.25893660e-12	1	true
2.49578e-07     	smoothSolver	3.23364090e-03	1.70200790e-11	1	1.85117110e-01	4.98332900e-12	1	false	smoothSolver	3.29578780e-03	1.15780300e-11	1	true	DILUPBiCGStab	3.02411790e-02	1.14076260e-11	1	true	DILUPBiCGStab	3.91607140e-07	3.91607140e-07	0	true	GAMG	3.29178120e-03	9.00499190e-13	1	true
3.1129e-07      	smoothSolver	3.07430270e-03	1.25531720e-11	1	1.78780290e-01	6.22197380e-12	1	false	smoothSolver	3.13125720e-03	9.08156320e-12	1	true	DILUPBiCGStab	2.87272200e-02	1.55019080e-11	1	true	DILUPBiCGStab	4.66718940e-07	4.66718940e-07	0	true	GAMG	3.12652630e-03	8.46640210e-13	1	true
3.85249e-07     	smoothSolver	2.95941310e-03	9.43468100e-12	1	1.74082250e-01	7.81414970e-12	1	false	smoothSolver	3.01263470e-03	7.28990690e-12	1	true	DILUPBiCGStab	2.76173330e-02	2.14378100e-11	1	true	DILUPBiCGStab	5.56904130e-07	5.56904130e-07	0	true	GAMG	3.00698690e-03	5.01390450e-13	1	true
4.74275e-07     	smoothSolver	2.88313460e-03	7.10642660e-12	1	1.70948360e-01	9.97824550e-12	1	false	smoothSolver	2.93414240e-03	5.91458950e-12	1	true	DILUPBiCGStab	2.68608390e-02	3.02888870e-11	1	true	DILUPBiCGStab	6.66851930e-07	6.66851930e-07	0	true	GAMG	2.92733070e-03	5.16825610e-13	1	true
5.74546e-07     	smoothSolver	2.64185780e-03	5.40485870e-12	1	1.59288950e-01	1.06042470e-11	1	false	smoothSolver	2.68866820e-03	4.72797620e-12	1	true	DILUPBiCGStab	2.46075910e-02	3.52543900e-11	1	true	DILUPBiCGStab	7.46766950e-07	7.46766950e-07	0	true	GAMG	2.68089580e-03	3.92224470e-13	1	true
6.74817e-07     	smoothSolver	2.18601080e-03	4.05741120e-12	1	1.35806490e-01	8.19543990e-12	1	false	smoothSolver	2.22304280e-03	3.97241780e-12	1	true	DILUPBiCGStab	2.03779390e-02	2.92524130e-11	1	true	DILUPBiCGStab	7.42591080e-07	7.42591080e-07	0	true	GAMG	2.21513790e-03	3.62453510e-13	1	true
7.75087e-07     	smoothSolver	1.86811950e-03	3.17680220e-12	1	1.18678500e-01	6.61774590e-12	1	false	smoothSolver	1.89495740e-03	3.39851960e-12	1	true	DILUPBiCGStab	1.73843220e-02	2.49546500e-11	1	true	DILUPBiCGStab	7.38432500e-07	7.38432500e-07	0	true	GAMG	1.88703040e-03	2.74229770e-13	1	true
8.75358e-07     	smoothSolver	1.63280550e-03	2.55664090e-12	1	1.05536120e-01	5.51580990e-12	1	false	smoothSolver	1.65121470e-03	2.97390120e-12	1	true	DILUPBiCGStab	1.51540130e-02	2.17239480e-11	1	true	DILUPBiCGStab	7.34273490e-07	7.34273490e-07	0	true	GAMG	1.64328930e-03	2.64868500e-13	1	true
9.75629e-07     	smoothSolver	1.45118900e-03	2.09588980e-12	1	9.50883170e-02	4.71099660e-12	1	false	smoothSolver	1.46288300e-03	2.58371570e-12	1	true	DILUPBiCGStab	1.34280540e-02	1.92470460e-11	1	true	DILUPBiCGStab	7.30160620e-07	7.30160620e-07	0	true	GAMG	1.45497370e-03	2.51538620e-13	1	true
1.0759e-06      	smoothSolver	1.30652210e-03	1.79457910e-12	1	8.65607270e-02	4.08918590e-12	1	false	smoothSolver	1.31290540e-03	2.31932500e-12	1	true	DILUPBiCGStab	1.20527360e-02	1.72713640e-11	1	true	DILUPBiCGStab	7.26071210e-07	7.26071210e-07	0	true	GAMG	1.30502080e-03	2.12406230e-13	1	true
1.17617e-06     	smoothSolver	1.18840660e-03	1.54942170e-12	1	7.94561000e-02	3.60498020e-12	1	false	smoothSolver	1.19057360e-03	2.12475670e-12	1	true	DILUPBiCGStab	1.09310980e-02	1.56614120e-11	1	true	DILUPBiCGStab	7.21996080e-07	7.21996080e-07	0	true	GAMG	1.18272070e-03	2.03790140e-13	1	true
1.27644e-06     	smoothSolver	1.09003870e-03	1.34203870e-12	1	7.34383560e-02	3.22265610e-12	1	false	smoothSolver	1.08882750e-03	1.94087680e-12	1	true	DILUPBiCGStab	9.99890710e-03	1.43027500e-11	1	true	DILUPBiCGStab	7.17940830e-07	7.17940830e-07	0	true	GAMG	1.08102450e-03	2.06226350e-13	1	true
1.37671e-06     	smoothSolver	1.00677210e-03	1.19582780e-12	1	6.82713260e-02	2.91764840e-12	1	false	smoothSolver	1.00321630e-03	1.76332210e-12	1	true	DILUPBiCGStab	9.21211810e-03	1.31644330e-11	1	true	DILUPBiCGStab	7.13928260e-07	7.13928260e-07	0	true	GAMG	9.95667970e-04	1.82251690e-13	1	true
1.47698e-06     	smoothSolver	9.35323240e-04	1.02707670e-12	1	6.37838880e-02	2.66972320e-12	1	false	smoothSolver	9.30418990e-04	1.67979160e-12	1	true	DILUPBiCGStab	8.53911830e-03	1.21915810e-11	1	true	DILUPBiCGStab	7.09952700e-07	7.09952700e-07	0	true	GAMG	9.22946630e-04	1.62870890e-13	1	true
1.57725e-06     	smoothSolver	8.73303860e-04	9.32114490e-13	1	5.98479280e-02	2.46250560e-12	1	false	smoothSolver	8.67667690e-04	1.58764420e-12	1	true	DILUPBiCGStab	7.95683590e-03	1.13530190e-11	1	true	DILUPBiCGStab	7.05960890e-07	7.05960890e-07	0	true	GAMG	8.60491970e-04	1.59084530e-13	1	true
1.67752e-06     	smoothSolver	8.18933880e-04	8.32459700e-13	1	5.63662270e-02	2.28900530e-12	1	false	smoothSolver	8.13275330e-04	1.47085040e-12	1	true	DILUPBiCGStab	7.44812380e-03	1.06232580e-11	1	true	DILUPBiCGStab	7.01998570e-07	7.01998570e-07	0	true	GAMG	8.06159020e-04	1.43743880e-13	1	true
1.7778e-06      	smoothSolver	7.70868350e-04	7.59712270e-13	1	5.32620700e-02	2.14139650e-12	1	false	smoothSolver	7.65379810e-04	1.36262520e-12	1	true	DILUPBiCGStab	7.00014570e-03	9.98285400e-12	1	true	DILUPBiCGStab	6.98041290e-07	6.98041290e-07	0	true	GAMG	7.58322900e-04	1.42332310e-13	1	true
1.87807e-06     	smoothSolver	7.28058000e-04	6.79929650e-13	1	5.04775520e-02	2.00234170e-12	1	false	smoothSolver	7.22890820e-04	1.25590730e-12	1	true	DILUPBiCGStab	6.60252300e-03	9.40035200e-12	1	true	DILUPBiCGStab	6.93809070e-07	6.93809070e-07	0	true	GAMG	7.15894610e-04	1.35851870e-13	1	true
1.97834e-06     	smoothSolver	6.89664180e-04	6.18755970e-13	1	4.79671450e-02	1.87162010e-12	1	false	smoothSolver	6.84945890e-04	1.16773110e-12	1	true	DILUPBiCGStab	6.24717980e-03	8.86354240e-12	1	true	DILUPBiCGStab	6.89355610e-07	6.89355610e-07	0	true	GAMG	6.78006900e-04	1.07378910e-13	1	true
2.07861e-06     	smoothSolver	6.55025290e-04	5.55674730e-13	1	4.56993840e-02	1.74898520e-12	1	false	smoothSolver	6.50850580e-04	1.17344940e-12	1	true	DILUPBiCGStab	5.92772940e-03	8.38254420e-12	1	true	DILUPBiCGStab	6.84796030e-07	6.84796030e-07	0	true	GAMG	6.43967260e-04	1.18407960e-13	1	true
2.17888e-06     	smoothSolver	6.23649390e-04	5.02113270e-13	1	4.36360940e-02	1.62691750e-12	1	false	smoothSolver	6.20047750e-04	1.07237850e-12	1	true	DILUPBiCGStab	5.63899210e-03	7.94318290e-12	1	true	DILUPBiCGStab	6.80055000e-07	6.80055000e-07	0	true	GAMG	6.13219220e-04	1.21948670e-13	1	true
2.27915e-06     	smoothSolver	5.95137090e-04	4.80743600e-13	1	4.17505680e-02	1.50455540e-12	1	false	smoothSolver	5.92078750e-04	1.05699340e-12	1	true	DILUPBiCGStab	5.37675320e-03	7.54378500e-12	1	true	DILUPBiCGStab	6.75130550e-07	6.75130550e-07	0	true	GAMG	5.85302500e-04	1.14641400e-13	1	true
2.37942e-06     	smoothSolver	5.69060030e-04	4.56163840e-13	1	4.00280370e-02	1.38241670e-12	1	false	smoothSolver	5.66566050e-04	9.93378790e-13	1	true	DILUPBiCGStab	5.13752720e-03	7.18235540e-12	1	true	DILUPBiCGStab	6.70098130e-07	6.70098130e-07	0	true	GAMG	5.59840760e-04	1.08655100e-13	1	true
2.47969e-06     	smoothSolver	5.45116670e-04	4.29614920e-13	1	3.84420870e-02	1.24561070e-12	1	false	smoothSolver	5.43198310e-04	9.55344810e-13	1	true	DILUPBiCGStab	4.91842350e-03	6.84706540e-12	1	true	DILUPBiCGStab	6.64713940e-07	6.64713940e-07	0	true	GAMG	5.36523410e-04	9.55345410e-14	1	true
2.57996e-06     	smoothSolver	5.23050190e-04	3.90707930e-13	1	3.69738300e-02	1.08361600e-12	1	false	smoothSolver	5.21714470e-04	9.15407160e-13	1	true	DILUPBiCGStab	4.71701010e-03	6.52568750e-12	1	true	DILUPBiCGStab	6.58801830e-07	6.58801830e-07	0	true	GAMG	5.15089210e-04	8.20848710e-14	1	true
2.68023e-06     	smoothSolver	5.02646190e-04	3.62070520e-13	1	3.56098430e-02	9.22325580e-13	1	false	smoothSolver	5.01893750e-04	8.99248410e-13	1	true	DILUPBiCGStab	4.53123090e-03	6.22382490e-12	1	true	DILUPBiCGStab	6.52660550e-07	6.52660550e-07	0	true	GAMG	4.95317680e-04	8.46475190e-14	1	true
2.7805e-06      	smoothSolver	4.83719350e-04	3.31614970e-13	1	3.43405310e-02	7.91926310e-13	1	false	smoothSolver	4.83549060e-04	8.60360280e-13	1	true	DILUPBiCGStab	4.35934180e-03	5.94511370e-12	1	true	DILUPBiCGStab	6.46718390e-07	6.46718390e-07	0	true	GAMG	4.77021970e-04	7.77795850e-14	1	true
2.88077e-06     	smoothSolver	4.66113770e-04	3.12788800e-13	1	3.31568780e-02	6.85831060e-13	1	false	smoothSolver	4.66520430e-04	8.32995900e-13	1	true	DILUPBiCGStab	4.19985760e-03	5.68730520e-12	1	true	DILUPBiCGStab	6.40939790e-07	6.40939790e-07	0	true	GAMG	4.60041710e-04	7.79108850e-14	1	true
2.98104e-06     	smoothSolver	4.49693310e-04	3.03943760e-13	1	3.20484720e-02	5.98584730e-13	1	false	smoothSolver	4.50669030e-04	7.98416640e-13	1	true	DILUPBiCGStab	4.05153540e-03	5.44682220e-12	1	true	DILUPBiCGStab	6.35274530e-07	6.35274530e-07	0	true	GAMG	4.44238260e-04	7.49087870e-14	1	true
3.08132e-06     	smoothSolver	4.34340480e-04	2.91605540e-13	1	3.10074950e-02	5.21834020e-13	1	false	smoothSolver	4.35875220e-04	7.73526050e-13	1	true	DILUPBiCGStab	3.91319060e-03	5.22599740e-12	1	true	DILUPBiCGStab	6.29597010e-07	6.29597010e-07	0	true	GAMG	4.29492010e-04	6.16774310e-14	1	true
3.18159e-06     	smoothSolver	4.19953130e-04	2.68152480e-13	1	3.00296900e-02	4.54742940e-13	1	false	smoothSolver	4.22035020e-04	7.37865940e-13	1	true	DILUPBiCGStab	3.78384340e-03	5.01391350e-12	1	true	DILUPBiCGStab	6.23918300e-07	6.23918300e-07	0	true	GAMG	4.15699010e-04	6.28269090e-14	1	true
3.28186e-06     	smoothSolver	4.06440940e-04	2.43132490e-13	1	2.91097660e-02	3.98664390e-13	1	false	smoothSolver	4.09057360e-04	7.21303770e-13	1	true	DILUPBiCGStab	3.66264900e-03	4.82339760e-12	1	true	DILUPBiCGStab	6.18313730e-07	6.18313730e-07	0	true	GAMG	4.02768240e-04	7.04384120e-14	1	true
3.38213e-06     	smoothSolver	3.93724600e-04	2.39896400e-13	1	2.82426620e-02	3.51459680e-13	1	false	smoothSolver	3.96862260e-04	7.05265250e-13	1	true	DILUPBiCGStab	3.54886110e-03	4.63699610e-12	1	true	DILUPBiCGStab	6.12775140e-07	6.12775140e-07	0	true	GAMG	3.90619800e-04	7.65983140e-14	1	true
3.4824e-06      	smoothSolver	3.81736220e-04	2.29962880e-13	1	2.74239020e-02	3.11445830e-13	1	false	smoothSolver	3.85379260e-04	6.65219530e-13	1	true	DILUPBiCGStab	3.44182060e-03	4.46516610e-12	1	true	DILUPBiCGStab	6.07301730e-07	6.07301730e-07	0	true	GAMG	3.79183200e-04	6.95835740e-14	1	true
3.58267e-06     	smoothSolver	3.70414400e-04	2.17313770e-13	1	2.66495150e-02	2.77350360e-13	1	false	smoothSolver	3.74546100e-04	6.71057650e-13	1	true	DILUPBiCGStab	3.34094940e-03	4.30636220e-12	1	true	DILUPBiCGStab	6.01881180e-07	6.01881180e-07	0	true	GAMG	3.68396230e-04	6.68506220e-14	1	true
3.68294e-06     	smoothSolver	3.59704330e-04	2.02114930e-13	1	2.59159380e-02	2.48217470e-13	1	false	smoothSolver	3.64307350e-04	6.44281190e-13	1	true	DILUPBiCGStab	3.24572390e-03	4.15341070e-12	1	true	DILUPBiCGStab	5.96504310e-07	5.96504310e-07	0	true	GAMG	3.58203470e-04	6.73444520e-14	1	true
3.78321e-06     	smoothSolver	3.49557590e-04	1.94705850e-13	1	2.52199920e-02	2.23100540e-13	1	false	smoothSolver	3.54613760e-04	6.15796990e-13	1	true	DILUPBiCGStab	3.15567700e-03	4.01040570e-12	1	true	DILUPBiCGStab	5.91160490e-07	5.91160490e-07	0	true	GAMG	3.48555710e-04	6.68747290e-14	1	true
3.88348e-06     	smoothSolver	3.39930550e-04	1.88423790e-13	1	2.45588190e-02	2.01435650e-13	1	false	smoothSolver	3.45421160e-04	5.92357620e-13	1	true	DILUPBiCGStab	3.07039200e-03	3.87551430e-12	1	true	DILUPBiCGStab	5.85842800e-07	5.85842800e-07	0	true	GAMG	3.39408750e-04	6.80541360e-14	1	true
3.98375e-06     	smoothSolver	3.30783190e-04	1.79476970e-13	1	2.39298410e-02	1.82658640e-13	1	false	smoothSolver	3.36689950e-04	5.92617440e-13	1	true	DILUPBiCGStab	2.98950160e-03	3.74943530e-12	1	true	DILUPBiCGStab	5.80544560e-07	5.80544560e-07	0	true	GAMG	3.30723030e-04	6.30203110e-14	1	true
4.08402e-06     	smoothSolver	3.22080040e-04	1.71832360e-13	1	2.33307300e-02	1.66349390e-13	1	false	smoothSolver	3.28384520e-04	5.84737760e-13	1	true	DILUPBiCGStab	2.91267280e-03	3.64559740e-12	1	true	DILUPBiCGStab	5.75259930e-07	5.75259930e-07	0	true	GAMG	3.22462940e-04	5.91571960e-14	1	true
4.18429e-06     	smoothSolver	3.13789540e-04	1.67210950e-13	1	2.27593750e-02	1.52109410e-13	1	false	smoothSolver	3.20472810e-04	5.61130510e-13	1	true	DILUPBiCGStab	2.83960870e-03	3.55976620e-12	1	true	DILUPBiCGStab	5.69984390e-07	5.69984390e-07	0	true	GAMG	3.14596440e-04	6.00376310e-14	1	true
4.28456e-06     	smoothSolver	3.05882870e-04	1.53484150e-13	1	2.22138610e-02	1.39659550e-13	1	false	smoothSolver	3.12925800e-04	5.49795960e-13	1	true	DILUPBiCGStab	2.77003300e-03	3.48102850e-12	1	true	DILUPBiCGStab	5.64713660e-07	5.64713660e-07	0	true	GAMG	3.07094470e-04	4.87990890e-14	1	true
4.38484e-06     	smoothSolver	2.98333150e-04	1.53780850e-13	1	2.16924480e-02	1.28706870e-13	1	false	smoothSolver	3.05717160e-04	5.29016500e-13	1	true	DILUPBiCGStab	2.70371040e-03	3.39596550e-12	1	true	DILUPBiCGStab	5.59444230e-07	5.59444230e-07	0	true	GAMG	2.99930700e-04	5.40280550e-14	1	true
4.48511e-06     	smoothSolver	2.91116470e-04	1.48003500e-13	1	2.11935460e-02	1.18925710e-13	1	false	smoothSolver	2.98822990e-04	5.21300800e-13	1	true	DILUPBiCGStab	2.64043980e-03	3.30975360e-12	1	true	DILUPBiCGStab	5.54173070e-07	5.54173070e-07	0	true	GAMG	2.93081310e-04	5.46254010e-14	1	true
4.58538e-06     	smoothSolver	2.84211100e-04	1.39213690e-13	1	2.07157040e-02	1.10292390e-13	1	false	smoothSolver	2.92221540e-04	5.18393340e-13	1	true	DILUPBiCGStab	2.57997420e-03	3.21541750e-12	1	true	DILUPBiCGStab	5.48896710e-07	5.48896710e-07	0	true	GAMG	2.86524530e-04	5.19604150e-14	1	true
4.68565e-06     	smoothSolver	2.77597780e-04	1.32279710e-13	1	2.02575920e-02	1.02625180e-13	1	false	smoothSolver	2.85903550e-04	5.04370690e-13	1	true	DILUPBiCGStab	2.52213310e-03	3.12338250e-12	1	true	DILUPBiCGStab	5.43611770e-07	5.43611770e-07	0	true	GAMG	2.80253710e-04	3.78921790e-14	1	true
4.78592e-06     	smoothSolver	2.71257580e-04	1.31507870e-13	1	1.98179890e-02	9.58414050e-14	1	false	smoothSolver	2.79873960e-04	5.06511710e-13	1	true	DILUPBiCGStab	2.46675140e-03	3.03530620e-12	1	true	DILUPBiCGStab	5.38316210e-07	5.38316210e-07	0	true	GAMG	2.74269820e-04	4.06920490e-14	1	true
4.88619e-06     	smoothSolver	2.65173680e-04	1.23702800e-13	1	1.93957760e-02	8.91981780e-14	1	false	smoothSolver	2.74109460e-04	4.90359450e-13	1	true	DILUPBiCGStab	2.41367840e-03	2.95086520e-12	1	true	DILUPBiCGStab	5.32993750e-07	5.32993750e-07	0	true	GAMG	2.68546310e-04	4.11843880e-14	1	true
4.98646e-06     	smoothSolver	2.59330740e-04	1.19382730e-13	1	1.89899210e-02	8.27268470e-14	1	false	smoothSolver	2.68593570e-04	4.67341790e-13	1	true	DILUPBiCGStab	2.36277440e-03	2.86587320e-12	1	true	DILUPBiCGStab	5.27576800e-07	5.27576800e-07	0	true	GAMG	2.63075990e-04	3.71753200e-14	1	true
5.08673e-06     	smoothSolver	2.53714590e-04	1.15219640e-13	1	1.85994710e-02	7.66411740e-14	1	false	smoothSolver	2.63300650e-04	4.56758620e-13	1	true	DILUPBiCGStab	2.31390150e-03	2.78038840e-12	1	true	DILUPBiCGStab	5.22150720e-07	5.22150720e-07	0	true	GAMG	2.57830410e-04	3.94720200e-14	1	true
5.187e-06       	smoothSolver	2.48312520e-04	1.11989280e-13	1	1.82235480e-02	7.10279110e-14	1	false	smoothSolver	2.58215720e-04	4.53277340e-13	1	true	DILUPBiCGStab	2.26694350e-03	2.69222310e-12	1	true	DILUPBiCGStab	5.16713190e-07	5.16713190e-07	0	true	GAMG	2.52791520e-04	3.85165210e-14	1	true
5.28727e-06     	smoothSolver	2.43112570e-04	1.07383720e-13	1	1.78613390e-02	6.58808570e-14	1	false	smoothSolver	2.53324240e-04	4.43776870e-13	1	true	DILUPBiCGStab	2.22182820e-03	2.60397370e-12	1	true	DILUPBiCGStab	5.11262740e-07	5.11262740e-07	0	true	GAMG	2.47944550e-04	3.55610480e-14	1	true
5.38754e-06     	smoothSolver	2.38103190e-04	1.03679800e-13	1	1.75120890e-02	6.11830440e-14	1	false	smoothSolver	2.48613160e-04	4.36167370e-13	1	true	DILUPBiCGStab	2.17845470e-03	2.51924720e-12	1	true	DILUPBiCGStab	5.05796360e-07	5.05796360e-07	0	true	GAMG	2.43277100e-04	4.01428420e-14	1	true
5.48781e-06     	smoothSolver	2.33274110e-04	9.81333430e-14	1	1.71751010e-02	5.68749500e-14	1	false	smoothSolver	2.44071120e-04	4.24629360e-13	1	true	DILUPBiCGStab	2.13670330e-03	2.43639880e-12	1	true	DILUPBiCGStab	5.00313650e-07	5.00313650e-07	0	true	GAMG	2.38777940e-04	3.35951880e-14	1	true
5.58809e-06     	smoothSolver	2.28615790e-04	9.90505240e-14	1	1.68497250e-02	5.29433970e-14	1	false	smoothSolver	2.39688010e-04	4.34936050e-13	1	true	DILUPBiCGStab	2.09648300e-03	2.35403890e-12	1	true	DILUPBiCGStab	4.94813230e-07	4.94813230e-07	0	true	GAMG	2.34437130e-04	3.78979510e-14	1	true
5.68836e-06     	smoothSolver	2.24119360e-04	9.35172680e-14	1	1.65353580e-02	4.93730890e-14	1	false	smoothSolver	2.35454450e-04	4.13915830e-13	1	true	DILUPBiCGStab	2.05770720e-03	2.27809280e-12	1	true	DILUPBiCGStab	4.89293000e-07	4.89293000e-07	0	true	GAMG	2.30246690e-04	3.21022150e-14	1	true
5.78863e-06     	smoothSolver	2.19776640e-04	9.60951580e-14	1	1.62314360e-02	4.60897660e-14	1	false	smoothSolver	2.31365350e-04	4.00766510e-13	1	true	DILUPBiCGStab	2.02029280e-03	2.19980880e-12	1	true	DILUPBiCGStab	4.83751440e-07	4.83751440e-07	0	true	GAMG	2.26217030e-04	3.63697170e-14	1	true
5.8889e-06      	smoothSolver	2.15580260e-04	9.07461610e-14	1	1.59374380e-02	4.30691190e-14	1	false	smoothSolver	2.27436100e-04	3.98989060e-13	1	true	DILUPBiCGStab	1.98416990e-03	2.12604850e-12	1	true	DILUPBiCGStab	4.78188150e-07	4.78188150e-07	0	true	GAMG	2.22360410e-04	3.71140380e-14	1	true
5.98917e-06     	smoothSolver	2.11523050e-04	8.68664560e-14	1	1.56528730e-02	4.03153610e-14	1	false	smoothSolver	2.23672390e-04	3.93860730e-13	1	true	DILUPBiCGStab	1.94927370e-03	2.05264540e-12	1	true	DILUPBiCGStab	4.72600990e-07	4.72600990e-07	0	true	GAMG	2.18651540e-04	3.72267110e-14	1	true
6.08944e-06     	smoothSolver	2.07598300e-04	8.22531580e-14	1	1.53772870e-02	3.78558690e-14	1	false	smoothSolver	2.20045060e-04	3.84094030e-13	1	true	DILUPBiCGStab	1.91553810e-03	1.97981420e-12	1	true	DILUPBiCGStab	4.66989600e-07	4.66989600e-07	0	true	GAMG	2.15066550e-04	2.74632300e-14	1	true
6.18971e-06     	smoothSolver	2.03801160e-04	8.16911730e-14	1	1.51104180e-02	3.56118000e-14	1	false	smoothSolver	2.16535530e-04	3.79193310e-13	1	true	DILUPBiCGStab	1.88290360e-03	1.91070110e-12	1	true	DILUPBiCGStab	4.61353000e-07	4.61353000e-07	0	true	GAMG	2.11602510e-04	3.07712310e-14	1	true
6.28998e-06     	smoothSolver	2.00131960e-04	8.07797840e-14	1	1.48522720e-02	3.36045790e-14	1	false	smoothSolver	2.13141180e-04	3.77403540e-13	1	true	DILUPBiCGStab	1.85131520e-03	1.84248400e-12	1	true	DILUPBiCGStab	4.55690620e-07	4.55690620e-07	0	true	GAMG	2.08249680e-04	3.69634610e-14	1	true
6.39025e-06     	smoothSolver	1.96582380e-04	7.86373200e-14	1	1.46022290e-02	3.17368550e-14	1	false	smoothSolver	2.09852590e-04	3.66336640e-13	1	true	DILUPBiCGStab	1.82072410e-03	1.77492280e-12	1	true	DILUPBiCGStab	4.50001600e-07	4.50001600e-07	0	true	GAMG	2.05002010e-04	2.75903410e-14	1	true
6.49052e-06     	smoothSolver	1.93146590e-04	7.59537300e-14	1	1.43598800e-02	3.00412710e-14	1	false	smoothSolver	2.06664190e-04	3.59154800e-13	1	true	DILUPBiCGStab	1.79107900e-03	1.70869870e-12	1	true	DILUPBiCGStab	4.44284990e-07	4.44284990e-07	0	true	GAMG	2.01854430e-04	3.58756010e-14	1	true
6.59079e-06     	smoothSolver	1.89821610e-04	7.51704380e-14	1	1.41248860e-02	2.84989340e-14	1	false	smoothSolver	2.03575790e-04	3.48553590e-13	1	true	DILUPBiCGStab	1.76233860e-03	1.64275680e-12	1	true	DILUPBiCGStab	4.38539330e-07	4.38539330e-07	0	true	GAMG	1.98808790e-04	4.01126100e-14	1	true
6.69106e-06     	smoothSolver	1.86602900e-04	7.16359200e-14	1	1.38969280e-02	2.70887200e-14	1	false	smoothSolver	2.00585280e-04	3.53792400e-13	1	true	DILUPBiCGStab	1.73445590e-03	1.57958960e-12	1	true	DILUPBiCGStab	4.32764240e-07	4.32764240e-07	0	true	GAMG	1.95859360e-04	2.92301600e-14	1	true
6.79133e-06     	smoothSolver	1.83482790e-04	7.13071900e-14	1	1.36756340e-02	2.57879920e-14	1	false	smoothSolver	1.97686400e-04	3.47936440e-13	1	true	DILUPBiCGStab	1.70741210e-03	1.51601950e-12	1	true	DILUPBiCGStab	4.26957430e-07	4.26957430e-07	0	true	GAMG	1.93001240e-04	3.08525490e-14	1	true
6.89161e-06     	smoothSolver	1.80457010e-04	6.77335880e-14	1	1.34606940e-02	2.45797080e-14	1	false	smoothSolver	1.94874290e-04	3.43479090e-13	1	true	DILUPBiCGStab	1.68131940e-03	1.45803130e-12	1	true	DILUPBiCGStab	4.21116600e-07	4.21116600e-07	0	true	GAMG	1.90229080e-04	2.85092820e-14	1	true
6.99188e-06     	smoothSolver	1.77521900e-04	6.60249000e-14	1	1.32518210e-02	2.34732870e-14	1	false	smoothSolver	1.92145750e-04	3.34484630e-13	1	true	DILUPBiCGStab	1.65619200e-03	1.41045320e-12	1	true	DILUPBiCGStab	4.15241090e-07	4.15241090e-07	0	true	GAMG	1.87539820e-04	2.48033620e-14	1	true
7.09215e-06     	smoothSolver	1.74674130e-04	6.56146140e-14	1	1.30487630e-02	2.24399180e-14	1	false	smoothSolver	1.89496220e-04	3.41098690e-13	1	true	DILUPBiCGStab	1.63200900e-03	1.37564040e-12	1	true	DILUPBiCGStab	4.09328000e-07	4.09328000e-07	0	true	GAMG	1.84929840e-04	2.76199250e-14	1	true
7.19242e-06     	smoothSolver	1.71910530e-04	6.43453880e-14	1	1.28513030e-02	2.14958980e-14	1	false	smoothSolver	1.86924550e-04	3.23031400e-13	1	true	DILUPBiCGStab	1.60862500e-03	1.34491220e-12	1	true	DILUPBiCGStab	4.03377220e-07	4.03377220e-07	0	true	GAMG	1.82396370e-04	2.60609120e-14	1	true
7.29269e-06     	smoothSolver	1.69228340e-04	6.31870600e-14	1	1.26592190e-02	2.06170450e-14	1	false	smoothSolver	1.84424990e-04	3.27970290e-13	1	true	DILUPBiCGStab	1.58656990e-03	1.32529740e-12	1	true	DILUPBiCGStab	3.97387710e-07	3.97387710e-07	0	true	GAMG	1.79934430e-04	2.56433760e-14	1	true
7.39296e-06     	smoothSolver	1.66624780e-04	6.12293640e-14	1	1.24722750e-02	1.98391690e-14	1	false	smoothSolver	1.81994940e-04	3.13209670e-13	1	true	DILUPBiCGStab	1.56600970e-03	1.31638250e-12	1	true	DILUPBiCGStab	3.91357800e-07	3.91357800e-07	0	true	GAMG	1.77541450e-04	2.98578040e-14	1	true
7.49323e-06     	smoothSolver	1.64097490e-04	5.91255600e-14	1	1.22902950e-02	1.91862230e-14	1	false	smoothSolver	1.79631130e-04	3.19830900e-13	1	true	DILUPBiCGStab	1.54635050e-03	1.32059750e-12	1	true	DILUPBiCGStab	3.85286480e-07	3.85286480e-07	0	true	GAMG	1.75214020e-04	3.00921600e-14	1	true
7.5935e-06      	smoothSolver	1.61644640e-04	5.88139930e-14	1	1.21133460e-02	1.86212040e-14	1	false	smoothSolver	1.77330180e-04	3.15138130e-13	1	true	DILUPBiCGStab	1.52740260e-03	1.30006420e-12	1	true	DILUPBiCGStab	3.79171370e-07	3.79171370e-07	0	true	GAMG	1.72948630e-04	2.23309820e-14	1	true
7.69377e-06     	smoothSolver	1.59264150e-04	5.78186890e-14	1	1.19414280e-02	1.81353680e-14	1	false	smoothSolver	1.75088860e-04	3.06252400e-13	1	true	DILUPBiCGStab	1.50914130e-03	1.21798860e-12	1	true	DILUPBiCGStab	3.73009910e-07	3.73009910e-07	0	true	GAMG	1.70742320e-04	2.58023270e-14	1	true
7.79404e-06     	smoothSolver	1.56954280e-04	5.49393380e-14	1	1.17742440e-02	1.74938130e-14	1	false	smoothSolver	1.72905160e-04	2.97072930e-13	1	true	DILUPBiCGStab	1.49155290e-03	1.16569510e-12	1	true	DILUPBiCGStab	3.66798130e-07	3.66798130e-07	0	true	GAMG	1.68593300e-04	2.84528320e-14	1	true
7.89431e-06     	smoothSolver	1.54713260e-04	5.54267750e-14	1	1.16113480e-02	1.68037640e-14	1	false	smoothSolver	1.70777080e-04	2.94217740e-13	1	true	DILUPBiCGStab	1.47462960e-03	1.14360180e-12	1	true	DILUPBiCGStab	3.60535020e-07	3.60535020e-07	0	true	GAMG	1.66499880e-04	2.42100900e-14	1	true
7.99458e-06     	smoothSolver	1.52539740e-04	5.46928800e-14	1	1.14525380e-02	1.61745170e-14	1	false	smoothSolver	1.68706480e-04	2.99343030e-13	1	true	DILUPBiCGStab	1.45840810e-03	1.16939640e-12	1	true	DILUPBiCGStab	3.54217440e-07	3.54217440e-07	0	true	GAMG	1.64467280e-04	2.24132620e-14	1	true
8.09485e-06     	smoothSolver	1.50432500e-04	5.06637510e-14	1	1.12977450e-02	1.55849040e-14	1	false	smoothSolver	1.66699490e-04	2.93911290e-13	1	true	DILUPBiCGStab	1.44289540e-03	1.16986400e-12	1	true	DILUPBiCGStab	3.47841600e-07	3.47841600e-07	0	true	GAMG	1.62496760e-04	2.38076520e-14	1	true
8.19513e-06     	smoothSolver	1.48390660e-04	5.10225090e-14	1	1.11468210e-02	1.50390340e-14	1	false	smoothSolver	1.64747300e-04	2.86419950e-13	1	true	DILUPBiCGStab	1.42813990e-03	1.17167140e-12	1	true	DILUPBiCGStab	3.41403040e-07	3.41403040e-07	0	true	GAMG	1.60576750e-04	2.23701700e-14	1	true
8.2954e-06      	smoothSolver	1.46413580e-04	5.03572260e-14	1	1.09996810e-02	1.45659570e-14	1	false	smoothSolver	1.62843310e-04	2.81589550e-13	1	true	DILUPBiCGStab	1.41409500e-03	1.17101210e-12	1	true	DILUPBiCGStab	3.34891180e-07	3.34891180e-07	0	true	GAMG	1.58704710e-04	2.14447340e-14	1	true
8.39567e-06     	smoothSolver	1.44500930e-04	4.81435090e-14	1	1.08563550e-02	1.41149710e-14	1	false	smoothSolver	1.60986340e-04	2.76314800e-13	1	true	DILUPBiCGStab	1.40073730e-03	1.16414550e-12	1	true	DILUPBiCGStab	3.28301900e-07	3.28301900e-07	0	true	GAMG	1.56878600e-04	2.31315780e-14	1	true
8.49594e-06     	smoothSolver	1.42654180e-04	4.97600270e-14	1	1.07167210e-02	1.37167890e-14	1	false	smoothSolver	1.59173810e-04	2.87934790e-13	1	true	DILUPBiCGStab	1.38811070e-03	1.15434440e-12	1	true	DILUPBiCGStab	3.21632760e-07	3.21632760e-07	0	true	GAMG	1.55096130e-04	2.25921320e-14	1	true
8.59621e-06     	smoothSolver	1.40873510e-04	4.80277220e-14	1	1.05806960e-02	1.33447150e-14	1	false	smoothSolver	1.57403890e-04	2.75624910e-13	1	true	DILUPBiCGStab	1.37618930e-03	1.12576360e-12	1	true	DILUPBiCGStab	3.14871530e-07	3.14871530e-07	0	true	GAMG	1.53355510e-04	2.21912050e-14	1	true
8.69648e-06     	smoothSolver	1.39159010e-04	4.56837180e-14	1	1.04481570e-02	1.30128860e-14	1	false	smoothSolver	1.55675890e-04	2.76473190e-13	1	true	DILUPBiCGStab	1.36465180e-03	1.12013780e-12	1	true	DILUPBiCGStab	3.08001430e-07	3.08001430e-07	0	true	GAMG	1.51655740e-04	1.95474060e-14	1	true
8.79675e-06     	smoothSolver	1.37510130e-04	4.63046570e-14	1	1.03189600e-02	1.26888160e-14	1	false	smoothSolver	1.53989870e-04	2.69829120e-13	1	true	DILUPBiCGStab	1.35386290e-03	1.12091730e-12	1	true	DILUPBiCGStab	3.01015080e-07	3.01015080e-07	0	true	GAMG	1.49996350e-04	2.01506730e-14	1	true
8.89702e-06     	smoothSolver	1.35925470e-04	4.39247600e-14	1	1.01930520e-02	1.23819380e-14	1	false	smoothSolver	1.52343460e-04	2.66311830e-13	1	true	DILUPBiCGStab	1.34313410e-03	1.10877330e-12	1	true	DILUPBiCGStab	2.93919470e-07	2.93919470e-07	0	true	GAMG	1.48375400e-04	2.06254510e-14	1	true
8.99729e-06     	smoothSolver	1.34371870e-04	4.29005480e-14	1	1.00702930e-02	1.21119000e-14	1	false	smoothSolver	1.50734300e-04	2.59934780e-13	1	true	DILUPBiCGStab	1.33141530e-03	1.09452190e-12	1	true	DILUPBiCGStab	2.86763330e-07	2.86763330e-07	0	true	GAMG	1.46791000e-04	2.04956890e-14	1	true
9.09756e-06     	smoothSolver	1.32810450e-04	4.31667570e-14	1	9.95029110e-03	1.18590270e-14	1	false	smoothSolver	1.49162400e-04	2.59046390e-13	1	true	DILUPBiCGStab	1.31788080e-03	1.06764850e-12	1	true	DILUPBiCGStab	2.79602570e-07	2.79602570e-07	0	true	GAMG	1.45242980e-04	2.12528990e-14	1	true
9.19783e-06     	smoothSolver	1.31212930e-04	4.22365730e-14	1	9.83249020e-03	1.15991740e-14	1	false	smoothSolver	1.47629660e-04	2.58233430e-13	1	true	DILUPBiCGStab	1.30404090e-03	1.03688060e-12	1	true	DILUPBiCGStab	2.72472760e-07	2.72472760e-07	0	true	GAMG	1.43732260e-04	2.08392960e-14	1	true
9.2981e-06      	smoothSolver	1.29624890e-04	4.21633000e-14	1	9.71678850e-03	1.13808970e-14	1	false	smoothSolver	1.46132780e-04	2.57129130e-13	1	true	DILUPBiCGStab	1.29031130e-03	1.01601290e-12	1	true	DILUPBiCGStab	2.65333760e-07	2.65333760e-07	0	true	GAMG	1.42256390e-04	2.00098230e-14	1	true