# Solver information
# Time          	U_solver        	Ux_initial      	Ux_final        	Ux_iters        	Uz_initial      	Uz_final        	Uz_iters        	U_converged     	e_solver        	e_initial       	e_final         	e_iters         	e_converged     	k_solver        	k_initial       	k_final         	k_iters         	k_converged     	omega_solver    	omega_initial   	omega_final     	omega_iters     	omega_converged 	p_solver        	p_initial       	p_final         	p_iters         	p_converged     
2e-05           	smoothSolver	1.00000000e+00	3.37718170e-10	2	1.00000000e+00	5.17172640e-11	2	false	smoothSolver	1.00000000e+00	8.29243340e-10	2	true	DILUPBiCGStab	1.00000000e+00	2.24187340e-08	2	true	DILUPBiCGStab	1.84589490e-03	3.65244380e-08	1	true	GAMG	1.00000000e+00	1.33510090e-03	3	true
