/*--------------------------------*- C++ -*----------------------------------*\
| =========                 |                                                 |
| \\      /  F ield         | OpenFOAM: The Open Source CFD Toolbox           |
|  \\    /   O peration     | Version:  2406                                  |
|   \\  /    A nd           | Website:  www.openfoam.com                      |
|    \\/     M anipulation  |                                                 |
\*---------------------------------------------------------------------------*/
FoamFile
{
    version     2.0;
    format      ascii;
    arch        "LSB;label=32;scalar=64";
    class       volScalarField;
    location    "0";
    object      p;
}
// * * * * * * * * * * * * * * * * * * * * * * * * * * * * * * * * * * * * * //

dimensions      [1 -1 -2 0 0 0 0];

internalField   uniform 100000;

boundaryField
{
    aerofoil
    {
        type            zeroGradient;
    }
    inlet
    {
        type            freestreamPressure;
        freestreamValue nonuniform List<scalar> 0();
        value           nonuniform List<scalar> 0();
    }
    outlet
    {
        type            waveTransmissive;
        gamma           1.4;
        fieldInf        100000;
        lInf            5;
        value           uniform 100000;
    }
    back
    {
        type            empty;
    }
    front
    {
        type            empty;
    }
    procBoundary6to2
    {
        type            processor;
        value           uniform 100000;
    }
    procBoundary6to4
    {
        type            processor;
        value           uniform 100000;
    }
    procBoundary6to5
    {
        type            processor;
        value           uniform 100000;
    }
    procBoundary6to7
    {
        type            processor;
        value           uniform 100000;
    }
    procBoundary6to8
    {
        type            processor;
        value           uniform 100000;
    }
}


// ************************************************************************* //
