/*--------------------------------*- C++ -*----------------------------------*\
| =========                 |                                                 |
| \\      /  F ield         | OpenFOAM: The Open Source CFD Toolbox           |
|  \\    /   O peration     | Version:  2406                                  |
|   \\  /    A nd           | Website:  www.openfoam.com                      |
|    \\/     M anipulation  |                                                 |
\*---------------------------------------------------------------------------*/
FoamFile
{
    version     2.0;
    format      ascii;
    arch        "LSB;label=32;scalar=64";
    class       volScalarField;
    location    "5e-05";
    object      Ma;
}
// * * * * * * * * * * * * * * * * * * * * * * * * * * * * * * * * * * * * * //

dimensions      [0 0 0 0 0 0 0];

internalField   nonuniform List<scalar> 
16000
(
0.058196181
0.058085009
0.058107823
0.057969536
0.057927906
0.057811933
0.057762952
0.057721022
0.057710204
0.057706349
0.057706078
0.057706034
0.057706066
0.05770607
0.057706072
0.057706072
0.057706072
0.057706072
0.057706072
0.057706072
0.057706072
0.057706072
0.057706072
0.057706072
0.057706072
0.057706072
0.057706072
0.057706072
0.057706072
0.057706072
0.057706072
0.057706072
0.057706072
0.057706072
0.057706072
0.057706072
0.057706072
0.057706072
0.057706072
0.057706072
0.057706072
0.057706072
0.057706072
0.057706072
0.057706072
0.057706072
0.057706072
0.057706072
0.057706072
0.057706072
0.057706072
0.057706072
0.057706072
0.057706072
0.057706072
0.057706072
0.057706072
0.057706072
0.057706072
0.057706072
0.057706072
0.057706072
0.057706072
0.057706072
0.057706072
0.057706072
0.057706072
0.057706072
0.057706072
0.057706072
0.057706072
0.057706072
0.057706072
0.057706072
0.057706072
0.057706072
0.057706072
0.057706072
0.057706072
0.057706072
0.058030629
0.058103344
0.058095641
0.057950117
0.057897118
0.057781001
0.057736927
0.057707595
0.057704843
0.057704987
0.057705894
0.057706055
0.057706083
0.057706075
0.057706072
0.057706072
0.057706072
0.057706072
0.057706072
0.057706072
0.057706072
0.057706072
0.057706072
0.057706072
0.057706072
0.057706072
0.057706072
0.057706072
0.057706072
0.057706072
0.057706072
0.057706072
0.057706072
0.057706072
0.057706072
0.057706072
0.057706072
0.057706072
0.057706072
0.057706072
0.057706072
0.057706072
0.057706072
0.057706072
0.057706072
0.057706072
0.057706072
0.057706072
0.057706072
0.057706072
0.057706072
0.057706072
0.057706072
0.057706072
0.057706072
0.057706072
0.057706072
0.057706072
0.057706072
0.057706072
0.057706072
0.057706072
0.057706072
0.057706072
0.057706072
0.057706072
0.057706072
0.057706072
0.057706072
0.057706072
0.057706072
0.057706072
0.057706072
0.057706072
0.057706072
0.057706072
0.057706072
0.057706072
0.057706072
0.057706072
0.057744491
0.058096415
0.058084806
0.057930681
0.057868895
0.057743122
0.057703714
0.057683923
0.057693762
0.057701228
0.057705252
0.057706022
0.057706112
0.057706084
0.057706073
0.057706071
0.057706072
0.057706072
0.057706072
0.057706072
0.057706072
0.057706072
0.057706072
0.057706072
0.057706072
0.057706072
0.057706072
0.057706072
0.057706072
0.057706072
0.057706072
0.057706072
0.057706072
0.057706072
0.057706072
0.057706072
0.057706072
0.057706072
0.057706072
0.057706072
0.057706072
0.057706072
0.057706072
0.057706072
0.057706072
0.057706072
0.057706072
0.057706072
0.057706072
0.057706072
0.057706072
0.057706072
0.057706072
0.057706072
0.057706072
0.057706072
0.057706072
0.057706072
0.057706072
0.057706072
0.057706072
0.057706072
0.057706072
0.057706072
0.057706072
0.057706072
0.057706072
0.057706072
0.057706072
0.057706072
0.057706072
0.057706072
0.057706072
0.057706072
0.057706072
0.057706072
0.057706072
0.057706072
0.057706072
0.057706072
0.057336181
0.058079158
0.058066708
0.057905434
0.05783179
0.057700113
0.057660277
0.057650004
0.057677622
0.057695684
0.057704286
0.057705961
0.05770615
0.057706097
0.057706075
0.057706071
0.057706071
0.057706072
0.057706072
0.057706072
0.057706072
0.057706072
0.057706072
0.057706072
0.057706072
0.057706072
0.057706072
0.057706072
0.057706072
0.057706072
0.057706072
0.057706072
0.057706072
0.057706072
0.057706072
0.057706072
0.057706072
0.057706072
0.057706072
0.057706072
0.057706072
0.057706072
0.057706072
0.057706072
0.057706072
0.057706072
0.057706072
0.057706072
0.057706072
0.057706072
0.057706072
0.057706072
0.057706072
0.057706072
0.057706072
0.057706072
0.057706072
0.057706072
0.057706072
0.057706072
0.057706072
0.057706072
0.057706072
0.057706072
0.057706072
0.057706072
0.057706072
0.057706072
0.057706072
0.057706072
0.057706072
0.057706072
0.057706072
0.057706072
0.057706072
0.057706072
0.057706072
0.057706072
0.057706072
0.057706072
0.056822098
0.058061867
0.058050696
0.057874864
0.057787288
0.057647892
0.057605753
0.057606909
0.057656126
0.057687905
0.057702822
0.057705838
0.057706197
0.057706115
0.057706079
0.057706071
0.057706071
0.057706072
0.057706072
0.057706072
0.057706072
0.057706072
0.057706072
0.057706072
0.057706072
0.057706072
0.057706072
0.057706072
0.057706072
0.057706072
0.057706072
0.057706072
0.057706072
0.057706072
0.057706072
0.057706072
0.057706072
0.057706072
0.057706072
0.057706072
0.057706072
0.057706072
0.057706072
0.057706072
0.057706072
0.057706072
0.057706072
0.057706072
0.057706072
0.057706072
0.057706072
0.057706072
0.057706072
0.057706072
0.057706072
0.057706072
0.057706072
0.057706072
0.057706072
0.057706072
0.057706072
0.057706072
0.057706072
0.057706072
0.057706072
0.057706072
0.057706072
0.057706072
0.057706072
0.057706072
0.057706072
0.057706072
0.057706072
0.057706072
0.057706072
0.057706072
0.057706072
0.057706072
0.057706072
0.057706072
0.056208004
0.058045717
0.058031383
0.057840608
0.057738386
0.057586816
0.057540136
0.05755281
0.057627857
0.05767708
0.057700649
0.057705614
0.057706254
0.057706139
0.057706083
0.057706071
0.057706071
0.057706072
0.057706072
0.057706072
0.057706072
0.057706072
0.057706072
0.057706072
0.057706072
0.057706072
0.057706072
0.057706072
0.057706072
0.057706072
0.057706072
0.057706072
0.057706072
0.057706072
0.057706072
0.057706072
0.057706072
0.057706072
0.057706072
0.057706072
0.057706072
0.057706072
0.057706072
0.057706072
0.057706072
0.057706072
0.057706072
0.057706072
0.057706072
0.057706072
0.057706072
0.057706072
0.057706072
0.057706072
0.057706072
0.057706072
0.057706072
0.057706072
0.057706072
0.057706072
0.057706072
0.057706072
0.057706072
0.057706072
0.057706072
0.057706072
0.057706072
0.057706072
0.057706072
0.057706072
0.057706072
0.057706072
0.057706072
0.057706072
0.057706072
0.057706072
0.057706072
0.057706072
0.057706072
0.057706072
0.055483591
0.058026085
0.058006424
0.057798582
0.05768684
0.057514887
0.057461774
0.057486051
0.057591538
0.057662509
0.057697561
0.057705245
0.05770632
0.057706171
0.05770609
0.057706072
0.057706071
0.057706071
0.057706072
0.057706072
0.057706072
0.057706072
0.057706072
0.057706072
0.057706072
0.057706072
0.057706072
0.057706072
0.057706072
0.057706072
0.057706072
0.057706072
0.057706072
0.057706072
0.057706072
0.057706072
0.057706072
0.057706072
0.057706072
0.057706072
0.057706072
0.057706072
0.057706072
0.057706072
0.057706072
0.057706072
0.057706072
0.057706072
0.057706072
0.057706072
0.057706072
0.057706072
0.057706072
0.057706072
0.057706072
0.057706072
0.057706072
0.057706072
0.057706072
0.057706072
0.057706072
0.057706072
0.057706072
0.057706072
0.057706072
0.057706072
0.057706072
0.057706072
0.057706072
0.057706072
0.057706072
0.057706072
0.057706072
0.057706072
0.057706072
0.057706072
0.057706072
0.057706072
0.057706072
0.057706072
0.054647546
0.058003544
0.05797499
0.057749614
0.057629918
0.057432121
0.057369592
0.057405149
0.057545943
0.057643456
0.057693332
0.057704682
0.057706396
0.057706211
0.0577061
0.057706072
0.057706071
0.057706071
0.057706072
0.057706072
0.057706072
0.057706072
0.057706072
0.057706072
0.057706072
0.057706072
0.057706072
0.057706072
0.057706072
0.057706072
0.057706072
0.057706072
0.057706072
0.057706072
0.057706072
0.057706072
0.057706072
0.057706072
0.057706072
0.057706072
0.057706072
0.057706072
0.057706072
0.057706072
0.057706072
0.057706072
0.057706072
0.057706072
0.057706072
0.057706072
0.057706072
0.057706072
0.057706072
0.057706072
0.057706072
0.057706072
0.057706072
0.057706072
0.057706072
0.057706072
0.057706072
0.057706072
0.057706072
0.057706072
0.057706072
0.057706072
0.057706072
0.057706072
0.057706072
0.057706072
0.057706072
0.057706072
0.057706072
0.057706072
0.057706072
0.057706072
0.057706072
0.057706072
0.057706072
0.057706072
0.053707763
0.057979825
0.057937892
0.05769515
0.057566369
0.057337697
0.057262933
0.057308475
0.05748967
0.057619058
0.057687691
0.057703864
0.057706477
0.057706262
0.057706113
0.057706072
0.057706071
0.057706071
0.057706072
0.057706072
0.057706072
0.057706072
0.057706072
0.057706072
0.057706072
0.057706072
0.057706072
0.057706072
0.057706072
0.057706072
0.057706072
0.057706072
0.057706072
0.057706072
0.057706072
0.057706072
0.057706072
0.057706072
0.057706072
0.057706072
0.057706072
0.057706072
0.057706072
0.057706072
0.057706072
0.057706072
0.057706072
0.057706072
0.057706072
0.057706072
0.057706072
0.057706072
0.057706072
0.057706072
0.057706072
0.057706072
0.057706072
0.057706072
0.057706072
0.057706072
0.057706072
0.057706072
0.057706072
0.057706072
0.057706072
0.057706072
0.057706072
0.057706072
0.057706072
0.057706072
0.057706072
0.057706072
0.057706072
0.057706072
0.057706072
0.057706072
0.057706072
0.057706072
0.057706072
0.057706072
0.052673372
0.057953997
0.057895123
0.057632888
0.057494608
0.057230163
0.057140379
0.057193979
0.057420972
0.057588264
0.057680309
0.057702715
0.057706563
0.057706325
0.057706131
0.057706073
0.057706071
0.057706071
0.057706072
0.057706072
0.057706072
0.057706072
0.057706072
0.057706072
0.057706072
0.057706072
0.057706072
0.057706072
0.057706072
0.057706072
0.057706072
0.057706072
0.057706072
0.057706072
0.057706072
0.057706072
0.057706072
0.057706072
0.057706072
0.057706072
0.057706072
0.057706072
0.057706072
0.057706072
0.057706072
0.057706072
0.057706072
0.057706072
0.057706072
0.057706072
0.057706072
0.057706072
0.057706072
0.057706072
0.057706072
0.057706072
0.057706072
0.057706072
0.057706072
0.057706072
0.057706072
0.057706072
0.057706072
0.057706072
0.057706072
0.057706072
0.057706072
0.057706072
0.057706072
0.057706072
0.057706072
0.057706072
0.057706072
0.057706072
0.057706072
0.057706072
0.057706072
0.057706072
0.057706072
0.057706072
0.051551707
0.057928329
0.057847416
0.057561263
0.057413722
0.057108615
0.05699981
0.057059097
0.057337724
0.057549791
0.057670776
0.057701141
0.057706647
0.057706401
0.057706154
0.057706075
0.05770607
0.057706071
0.057706072
0.057706072
0.057706072
0.057706072
0.057706072
0.057706072
0.057706072
0.057706072
0.057706072
0.057706072
0.057706072
0.057706072
0.057706072
0.057706072
0.057706072
0.057706072
0.057706072
0.057706072
0.057706072
0.057706072
0.057706072
0.057706072
0.057706072
0.057706072
0.057706072
0.057706072
0.057706072
0.057706072
0.057706072
0.057706072
0.057706072
0.057706072
0.057706072
0.057706072
0.057706072
0.057706072
0.057706072
0.057706072
0.057706072
0.057706072
0.057706072
0.057706072
0.057706072
0.057706072
0.057706072
0.057706072
0.057706072
0.057706072
0.057706072
0.057706072
0.057706072
0.057706072
0.057706072
0.057706072
0.057706072
0.057706072
0.057706072
0.057706072
0.057706072
0.057706072
0.057706072
0.057706072
0.050352649
0.057909304
0.057789563
0.05748347
0.057322058
0.05697219
0.056838285
0.056900353
0.057237169
0.057501987
0.057658566
0.057699022
0.057706726
0.057706493
0.057706184
0.057706077
0.05770607
0.057706071
0.057706072
0.057706072
0.057706072
0.057706072
0.057706072
0.057706072
0.057706072
0.057706072
0.057706072
0.057706072
0.057706072
0.057706072
0.057706072
0.057706072
0.057706072
0.057706072
0.057706072
0.057706072
0.057706072
0.057706072
0.057706072
0.057706072
0.057706072
0.057706072
0.057706072
0.057706072
0.057706072
0.057706072
0.057706072
0.057706072
0.057706072
0.057706072
0.057706072
0.057706072
0.057706072
0.057706072
0.057706072
0.057706072
0.057706072
0.057706072
0.057706072
0.057706072
0.057706072
0.057706072
0.057706072
0.057706072
0.057706072
0.057706072
0.057706072
0.057706072
0.057706072
0.057706072
0.057706072
0.057706072
0.057706072
0.057706072
0.057706072
0.057706072
0.057706072
0.057706072
0.057706072
0.057706072
0.049172713
0.057893489
0.057718896
0.05739992
0.057217869
0.056818309
0.056652668
0.056713483
0.057115796
0.057442746
0.057642996
0.057696198
0.057706788
0.057706604
0.057706222
0.05770608
0.05770607
0.057706071
0.057706072
0.057706072
0.057706072
0.057706072
0.057706072
0.057706072
0.057706072
0.057706072
0.057706072
0.057706072
0.057706072
0.057706072
0.057706072
0.057706072
0.057706072
0.057706072
0.057706072
0.057706072
0.057706072
0.057706072
0.057706072
0.057706072
0.057706072
0.057706072
0.057706072
0.057706072
0.057706072
0.057706072
0.057706072
0.057706072
0.057706072
0.057706072
0.057706072
0.057706072
0.057706072
0.057706072
0.057706072
0.057706072
0.057706072
0.057706072
0.057706072
0.057706072
0.057706072
0.057706072
0.057706072
0.057706072
0.057706072
0.057706072
0.057706072
0.057706072
0.057706072
0.057706072
0.057706072
0.057706072
0.057706072
0.057706072
0.057706072
0.057706072
0.057706072
0.057706072
0.057706072
0.057706072
0.048032161
0.057875606
0.057639166
0.057303774
0.057098788
0.056642677
0.056438625
0.0564928
0.056968938
0.057369247
0.057623151
0.057692456
0.057706824
0.057706738
0.057706271
0.057706084
0.057706069
0.057706071
0.057706072
0.057706072
0.057706072
0.057706072
0.057706072
0.057706072
0.057706072
0.057706072
0.057706072
0.057706072
0.057706072
0.057706072
0.057706072
0.057706072
0.057706072
0.057706072
0.057706072
0.057706072
0.057706072
0.057706072
0.057706072
0.057706072
0.057706072
0.057706072
0.057706072
0.057706072
0.057706072
0.057706072
0.057706072
0.057706072
0.057706072
0.057706072
0.057706072
0.057706072
0.057706072
0.057706072
0.057706072
0.057706072
0.057706072
0.057706072
0.057706072
0.057706072
0.057706072
0.057706072
0.057706072
0.057706072
0.057706072
0.057706072
0.057706072
0.057706072
0.057706072
0.057706072
0.057706072
0.057706072
0.057706072
0.057706072
0.057706072
0.057706072
0.057706072
0.057706072
0.057706072
0.057706072
0.046906711
0.057857412
0.057544866
0.057189031
0.056959809
0.056439479
0.056190084
0.056230738
0.05679039
0.05727776
0.057597805
0.057687509
0.057706813
0.0577069
0.057706333
0.05770609
0.057706069
0.05770607
0.057706071
0.057706072
0.057706072
0.057706072
0.057706072
0.057706072
0.057706072
0.057706072
0.057706072
0.057706072
0.057706072
0.057706072
0.057706072
0.057706072
0.057706072
0.057706072
0.057706072
0.057706072
0.057706072
0.057706072
0.057706072
0.057706072
0.057706072
0.057706072
0.057706072
0.057706072
0.057706072
0.057706072
0.057706072
0.057706072
0.057706072
0.057706072
0.057706072
0.057706072
0.057706072
0.057706072
0.057706072
0.057706072
0.057706072
0.057706072
0.057706072
0.057706072
0.057706072
0.057706072
0.057706072
0.057706072
0.057706072
0.057706072
0.057706072
0.057706072
0.057706072
0.057706072
0.057706072
0.057706072
0.057706072
0.057706072
0.057706072
0.057706072
0.057706072
0.057706072
0.057706072
0.057706072
0.045795892
0.057835988
0.057426067
0.057053465
0.056795334
0.056200555
0.05589863
0.055917065
0.056571855
0.057163286
0.057565309
0.057680972
0.057706732
0.057707097
0.057706412
0.057706097
0.057706069
0.05770607
0.057706071
0.057706072
0.057706072
0.057706072
0.057706072
0.057706072
0.057706072
0.057706072
0.057706072
0.057706072
0.057706072
0.057706072
0.057706072
0.057706072
0.057706072
0.057706072
0.057706072
0.057706072
0.057706072
0.057706072
0.057706072
0.057706072
0.057706072
0.057706072
0.057706072
0.057706072
0.057706072
0.057706072
0.057706072
0.057706072
0.057706072
0.057706072
0.057706072
0.057706072
0.057706072
0.057706072
0.057706072
0.057706072
0.057706072
0.057706072
0.057706072
0.057706072
0.057706072
0.057706072
0.057706072
0.057706072
0.057706072
0.057706072
0.057706072
0.057706072
0.057706072
0.057706072
0.057706072
0.057706072
0.057706072
0.057706072
0.057706072
0.057706072
0.057706072
0.057706072
0.057706072
0.057706072
0.044717221
0.05782213
0.057293251
0.056905215
0.056604997
0.055920353
0.055554663
0.055538557
0.056302424
0.057019216
0.057523474
0.05767233
0.057706542
0.057707338
0.057706514
0.057706108
0.057706069
0.05770607
0.057706071
0.057706072
0.057706072
0.057706072
0.057706072
0.057706072
0.057706072
0.057706072
0.057706072
0.057706072
0.057706072
0.057706072
0.057706072
0.057706072
0.057706072
0.057706072
0.057706072
0.057706072
0.057706072
0.057706072
0.057706072
0.057706072
0.057706072
0.057706072
0.057706072
0.057706072
0.057706072
0.057706072
0.057706072
0.057706072
0.057706072
0.057706072
0.057706072
0.057706072
0.057706072
0.057706072
0.057706072
0.057706072
0.057706072
0.057706072
0.057706072
0.057706072
0.057706072
0.057706072
0.057706072
0.057706072
0.057706072
0.057706072
0.057706072
0.057706072
0.057706072
0.057706072
0.057706072
0.057706072
0.057706072
0.057706072
0.057706072
0.057706072
0.057706072
0.057706072
0.057706072
0.057706072
0.043723014
0.057841985
0.057129838
0.05678891
0.056401115
0.055609972
0.055148261
0.055078301
0.055967216
0.056836919
0.057469487
0.057660931
0.057706198
0.057707633
0.057706643
0.057706123
0.057706068
0.057706069
0.057706071
0.057706072
0.057706072
0.057706072
0.057706072
0.057706072
0.057706072
0.057706072
0.057706072
0.057706072
0.057706072
0.057706072
0.057706072
0.057706072
0.057706072
0.057706072
0.057706072
0.057706072
0.057706072
0.057706072
0.057706072
0.057706072
0.057706072
0.057706072
0.057706072
0.057706072
0.057706072
0.057706072
0.057706072
0.057706072
0.057706072
0.057706072
0.057706072
0.057706072
0.057706072
0.057706072
0.057706072
0.057706072
0.057706072
0.057706072
0.057706072
0.057706072
0.057706072
0.057706072
0.057706072
0.057706072
0.057706072
0.057706072
0.057706072
0.057706072
0.057706072
0.057706072
0.057706072
0.057706072
0.057706072
0.057706072
0.057706072
0.057706072
0.057706072
0.057706072
0.057706072
0.057706072
0.042761343
0.057935455
0.057149031
0.056758969
0.056249627
0.055263045
0.05466146
0.054508656
0.055544922
0.056605482
0.057400011
0.057646056
0.057705655
0.057707997
0.057706807
0.057706142
0.057706068
0.057706068
0.057706071
0.057706072
0.057706072
0.057706072
0.057706072
0.057706072
0.057706072
0.057706072
0.057706072
0.057706072
0.057706072
0.057706072
0.057706072
0.057706072
0.057706072
0.057706072
0.057706072
0.057706072
0.057706072
0.057706072
0.057706072
0.057706072
0.057706072
0.057706072
0.057706072
0.057706072
0.057706072
0.057706072
0.057706072
0.057706072
0.057706072
0.057706072
0.057706072
0.057706072
0.057706072
0.057706072
0.057706072
0.057706072
0.057706072
0.057706072
0.057706072
0.057706072
0.057706072
0.057706072
0.057706072
0.057706072
0.057706072
0.057706072
0.057706072
0.057706072
0.057706072
0.057706072
0.057706072
0.057706072
0.057706072
0.057706072
0.057706072
0.057706072
0.057706072
0.057706072
0.057706072
0.057706072
0.043263032
0.058059038
0.057501666
0.056546637
0.056022286
0.05478175
0.054032668
0.053780548
0.055006688
0.056311193
0.057311395
0.057627029
0.057704896
0.05770845
0.057707011
0.057706166
0.057706068
0.057706067
0.057706071
0.057706072
0.057706072
0.057706072
0.057706072
0.057706072
0.057706072
0.057706072
0.057706072
0.057706072
0.057706072
0.057706072
0.057706072
0.057706072
0.057706072
0.057706072
0.057706072
0.057706072
0.057706072
0.057706072
0.057706072
0.057706072
0.057706072
0.057706072
0.057706072
0.057706072
0.057706072
0.057706072
0.057706072
0.057706072
0.057706072
0.057706072
0.057706072
0.057706072
0.057706072
0.057706072
0.057706072
0.057706072
0.057706072
0.057706072
0.057706072
0.057706072
0.057706072
0.057706072
0.057706072
0.057706072
0.057706072
0.057706072
0.057706072
0.057706072
0.057706072
0.057706072
0.057706072
0.057706072
0.057706072
0.057706072
0.057706072
0.057706072
0.057706072
0.057706072
0.057706072
0.057706072
0.041560892
0.058022483
0.057078821
0.055981523
0.055458282
0.054061646
0.053172097
0.052831629
0.05431753
0.055938229
0.057200168
0.057603376
0.05770397
0.057709015
0.05770726
0.057706196
0.057706068
0.057706066
0.057706071
0.057706072
0.057706072
0.057706072
0.057706072
0.057706072
0.057706072
0.057706072
0.057706072
0.057706072
0.057706072
0.057706072
0.057706072
0.057706072
0.057706072
0.057706072
0.057706072
0.057706072
0.057706072
0.057706072
0.057706072
0.057706072
0.057706072
0.057706072
0.057706072
0.057706072
0.057706072
0.057706072
0.057706072
0.057706072
0.057706072
0.057706072
0.057706072
0.057706072
0.057706072
0.057706072
0.057706072
0.057706072
0.057706072
0.057706072
0.057706072
0.057706072
0.057706072
0.057706072
0.057706072
0.057706072
0.057706072
0.057706072
0.057706072
0.057706072
0.057706072
0.057706072
0.057706072
0.057706072
0.057706072
0.057706072
0.057706072
0.057706072
0.057706072
0.057706072
0.057706072
0.057706072
0.039381696
0.057707449
0.056294332
0.05538947
0.054705527
0.053031729
0.051999944
0.051579061
0.053443353
0.05547696
0.057066076
0.057575533
0.057703028
0.057709706
0.057707548
0.057706229
0.057706067
0.057706065
0.057706071
0.057706072
0.057706072
0.057706072
0.057706072
0.057706072
0.057706072
0.057706072
0.057706072
0.057706072
0.057706072
0.057706072
0.057706072
0.057706072
0.057706072
0.057706072
0.057706072
0.057706072
0.057706072
0.057706072
0.057706072
0.057706072
0.057706072
0.057706072
0.057706072
0.057706072
0.057706072
0.057706072
0.057706072
0.057706072
0.057706072
0.057706072
0.057706072
0.057706072
0.057706072
0.057706072
0.057706072
0.057706072
0.057706072
0.057706072
0.057706072
0.057706072
0.057706072
0.057706072
0.057706072
0.057706072
0.057706072
0.057706072
0.057706072
0.057706072
0.057706072
0.057706072
0.057706072
0.057706072
0.057706072
0.057706072
0.057706072
0.057706072
0.057706072
0.057706072
0.057706072
0.057706072
0.038081592
0.05724595
0.055847698
0.054612397
0.053742566
0.051543796
0.050362696
0.049906302
0.052359905
0.054932673
0.056917073
0.057545866
0.057702451
0.057710507
0.057707857
0.057706259
0.057706066
0.057706064
0.057706071
0.057706072
0.057706072
0.057706072
0.057706072
0.057706072
0.057706072
0.057706072
0.057706072
0.057706072
0.057706072
0.057706072
0.057706072
0.057706072
0.057706072
0.057706072
0.057706072
0.057706072
0.057706072
0.057706072
0.057706072
0.057706072
0.057706072
0.057706072
0.057706072
0.057706072
0.057706072
0.057706072
0.057706072
0.057706072
0.057706072
0.057706072
0.057706072
0.057706072
0.057706072
0.057706072
0.057706072
0.057706072
0.057706072
0.057706072
0.057706072
0.057706072
0.057706072
0.057706072
0.057706072
0.057706072
0.057706072
0.057706072
0.057706072
0.057706072
0.057706072
0.057706072
0.057706072
0.057706072
0.057706072
0.057706072
0.057706072
0.057706072
0.057706072
0.057706072
0.057706072
0.057706072
0.036247614
0.056570688
0.055184268
0.053316209
0.052255219
0.049369629
0.048088967
0.047710044
0.051087795
0.054345953
0.05677405
0.057520253
0.05770295
0.057711386
0.057708146
0.057706278
0.057706064
0.057706063
0.05770607
0.057706072
0.057706072
0.057706072
0.057706072
0.057706072
0.057706072
0.057706072
0.057706072
0.057706072
0.057706072
0.057706072
0.057706072
0.057706072
0.057706072
0.057706072
0.057706072
0.057706072
0.057706072
0.057706072
0.057706072
0.057706072
0.057706072
0.057706072
0.057706072
0.057706072
0.057706072
0.057706072
0.057706072
0.057706072
0.057706072
0.057706072
0.057706072
0.057706072
0.057706072
0.057706072
0.057706072
0.057706072
0.057706072
0.057706072
0.057706072
0.057706072
0.057706072
0.057706072
0.057706072
0.057706072
0.057706072
0.057706072
0.057706072
0.057706072
0.057706072
0.057706072
0.057706072
0.057706072
0.057706072
0.057706072
0.057706072
0.057706072
0.057706072
0.057706072
0.057706072
0.057706072
0.033692629
0.055704616
0.053888557
0.051282141
0.049793907
0.046239
0.044933248
0.044886079
0.049689937
0.053781122
0.056665855
0.057505959
0.057705269
0.057712264
0.057708352
0.057706275
0.05770606
0.057706062
0.05770607
0.057706072
0.057706072
0.057706072
0.057706072
0.057706072
0.057706072
0.057706072
0.057706072
0.057706072
0.057706072
0.057706072
0.057706072
0.057706072
0.057706072
0.057706072
0.057706072
0.057706072
0.057706072
0.057706072
0.057706072
0.057706072
0.057706072
0.057706072
0.057706072
0.057706072
0.057706072
0.057706072
0.057706072
0.057706072
0.057706072
0.057706072
0.057706072
0.057706072
0.057706072
0.057706072
0.057706072
0.057706072
0.057706072
0.057706072
0.057706072
0.057706072
0.057706072
0.057706072
0.057706072
0.057706072
0.057706072
0.057706072
0.057706072
0.057706072
0.057706072
0.057706072
0.057706072
0.057706072
0.057706072
0.057706072
0.057706072
0.057706072
0.057706072
0.057706072
0.057706072
0.057706072
0.031323264
0.054026701
0.051280431
0.04793928
0.045696813
0.041720585
0.040687267
0.041472217
0.048356
0.053363735
0.056628473
0.057510244
0.057709444
0.057712946
0.057708397
0.057706247
0.057706055
0.057706062
0.057706071
0.057706072
0.057706072
0.057706072
0.057706072
0.057706072
0.057706072
0.057706072
0.057706072
0.057706072
0.057706072
0.057706072
0.057706072
0.057706072
0.057706072
0.057706072
0.057706072
0.057706072
0.057706072
0.057706072
0.057706072
0.057706072
0.057706072
0.057706072
0.057706072
0.057706072
0.057706072
0.057706072
0.057706072
0.057706072
0.057706072
0.057706072
0.057706072
0.057706072
0.057706072
0.057706072
0.057706072
0.057706072
0.057706072
0.057706072
0.057706072
0.057706072
0.057706072
0.057706072
0.057706072
0.057706072
0.057706072
0.057706072
0.057706072
0.057706072
0.057706072
0.057706072
0.057706072
0.057706072
0.057706072
0.057706072
0.057706072
0.057706072
0.057706072
0.057706072
0.057706072
0.057706072
0.029443507
0.049547319
0.046651828
0.04226925
0.039417857
0.035350574
0.035577984
0.037820032
0.047348549
0.053177798
0.056667264
0.05753046
0.05771415
0.057713244
0.057708273
0.057706203
0.057706051
0.057706062
0.057706071
0.057706072
0.057706072
0.057706072
0.057706072
0.057706072
0.057706072
0.057706072
0.057706072
0.057706072
0.057706072
0.057706072
0.057706072
0.057706072
0.057706072
0.057706072
0.057706072
0.057706072
0.057706072
0.057706072
0.057706072
0.057706072
0.057706072
0.057706072
0.057706072
0.057706072
0.057706072
0.057706072
0.057706072
0.057706072
0.057706072
0.057706072
0.057706072
0.057706072
0.057706072
0.057706072
0.057706072
0.057706072
0.057706072
0.057706072
0.057706072
0.057706072
0.057706072
0.057706072
0.057706072
0.057706072
0.057706072
0.057706072
0.057706072
0.057706072
0.057706072
0.057706072
0.057706072
0.057706072
0.057706072
0.057706072
0.057706072
0.057706072
0.057706072
0.057706072
0.057706072
0.057706072
0.025041814
0.041032682
0.039129579
0.033772545
0.030499633
0.026980172
0.030297153
0.03442781
0.046740939
0.053157477
0.056738418
0.057553961
0.057717783
0.057713214
0.057708075
0.057706164
0.057706049
0.057706063
0.057706071
0.057706072
0.057706072
0.057706072
0.057706072
0.057706072
0.057706072
0.057706072
0.057706072
0.057706072
0.057706072
0.057706072
0.057706072
0.057706072
0.057706072
0.057706072
0.057706072
0.057706072
0.057706072
0.057706072
0.057706072
0.057706072
0.057706072
0.057706072
0.057706072
0.057706072
0.057706072
0.057706072
0.057706072
0.057706072
0.057706072
0.057706072
0.057706072
0.057706072
0.057706072
0.057706072
0.057706072
0.057706072
0.057706072
0.057706072
0.057706072
0.057706072
0.057706072
0.057706072
0.057706072
0.057706072
0.057706072
0.057706072
0.057706072
0.057706072
0.057706072
0.057706072
0.057706072
0.057706072
0.057706072
0.057706072
0.057706072
0.057706072
0.057706072
0.057706072
0.057706072
0.057706072
0.020454257
0.028332975
0.028596443
0.02361431
0.019882607
0.016890736
0.025691593
0.031637242
0.046271887
0.053094409
0.056766069
0.057563968
0.057719492
0.057713217
0.057707979
0.057706146
0.057706047
0.057706063
0.057706071
0.057706072
0.057706072
0.057706072
0.057706072
0.057706072
0.057706072
0.057706072
0.057706072
0.057706072
0.057706072
0.057706072
0.057706072
0.057706072
0.057706072
0.057706072
0.057706072
0.057706072
0.057706072
0.057706072
0.057706072
0.057706072
0.057706072
0.057706072
0.057706072
0.057706072
0.057706072
0.057706072
0.057706072
0.057706072
0.057706072
0.057706072
0.057706072
0.057706072
0.057706072
0.057706072
0.057706072
0.057706072
0.057706072
0.057706072
0.057706072
0.057706072
0.057706072
0.057706072
0.057706072
0.057706072
0.057706072
0.057706072
0.057706072
0.057706072
0.057706072
0.057706072
0.057706072
0.057706072
0.057706072
0.057706072
0.057706072
0.057706072
0.057706072
0.057706072
0.057706072
0.057706072
0.015363792
0.015694273
0.017962043
0.015236624
0.01028247
0.0060758504
0.022382504
0.02928032
0.045393792
0.052695879
0.056649381
0.057539018
0.057717816
0.057713807
0.05770824
0.057706184
0.057706047
0.057706062
0.057706071
0.057706072
0.057706072
0.057706072
0.057706072
0.057706072
0.057706072
0.057706072
0.057706072
0.057706072
0.057706072
0.057706072
0.057706072
0.057706072
0.057706072
0.057706072
0.057706072
0.057706072
0.057706072
0.057706072
0.057706072
0.057706072
0.057706072
0.057706072
0.057706072
0.057706072
0.057706072
0.057706072
0.057706072
0.057706072
0.057706072
0.057706072
0.057706072
0.057706072
0.057706072
0.057706072
0.057706072
0.057706072
0.057706072
0.057706072
0.057706072
0.057706072
0.057706072
0.057706072
0.057706072
0.057706072
0.057706072
0.057706072
0.057706072
0.057706072
0.057706072
0.057706072
0.057706072
0.057706072
0.057706072
0.057706072
0.057706072
0.057706072
0.057706072
0.057706072
0.057706072
0.057706072
0.060092137
0.054921379
0.05515271
0.056205458
0.056622337
0.057259092
0.057376176
0.05752666
0.057654783
0.057691942
0.057705974
0.057706209
0.057706213
0.057706083
0.057706074
0.057706071
0.057706072
0.057706072
0.057706072
0.057706072
0.057706072
0.057706072
0.057706072
0.057706072
0.057706072
0.057706072
0.057706072
0.057706072
0.057706072
0.057706072