/*--------------------------------*- C++ -*----------------------------------*\
| =========                 |                                                 |
| \\      /  F ield         | OpenFOAM: The Open Source CFD Toolbox           |
|  \\    /   O peration     | Version:  2406                                  |
|   \\  /    A nd           | Website:  www.openfoam.com                      |
|    \\/     M anipulation  |                                                 |
\*---------------------------------------------------------------------------*/
FoamFile
{
    version     2.0;
    format      ascii;
    arch        "LSB;label=32;scalar=64";
    class       volVectorField;
    location    "5e-05";
    object      U;
}
// * * * * * * * * * * * * * * * * * * * * * * * * * * * * * * * * * * * * * //

dimensions      [0 1 -1 0 0 0 0];

internalField   nonuniform List<vector> 
16000
(
(20.175047 -3.199074e-21 -0.13585739)
(20.128707 -8.9203791e-22 -0.096977452)
(20.1412 -8.3089245e-23 -0.041154123)
(20.092506 1.3157096e-23 -0.15743057)
(20.079484 -1.5949333e-22 -0.086685608)
(20.03817 -1.0872533e-21 -0.12511613)
(20.02118 8.9518369e-22 -0.057441313)
(20.005719 1.8085101e-22 -0.038166705)
(20.001642 -4.5561498e-22 -0.0088915299)
(20.000097 1.4862748e-22 -0.0025284112)
(19.999999 8.5079846e-26 0.00028276623)
(19.999984 1.2210071e-24 8.0118077e-05)
(19.999998 3.5519155e-24 4.0108146e-05)
(20 1.8207644e-26 2.9190044e-07)
(20 -1.5567073e-26 -4.0000253e-07)
(20 3.0507076e-26 -2.5673446e-07)
(20 1.3811199e-27 -8.7427475e-09)
(20 -9.6704267e-31 3.0419172e-09)
(20 -4.4860132e-29 1.0424846e-09)
(20 1.3245844e-29 2.1354203e-11)
(20 -4.0717448e-31 -1.44602e-11)
(20 1.4037393e-31 -2.7266057e-12)
(20 -2.803365e-33 -2.1619772e-12)
(20 1.0636112e-33 -1.6207231e-13)
(20 2.0406786e-33 1.4153295e-12)
(20 8.5563979e-33 1.3428277e-12)
(20 3.4361228e-33 -9.630853e-13)
(20 5.1209248e-33 -2.925683e-12)
(20 -8.797651e-35 8.2832594e-14)
(20 -2.3928991e-35 1.0940903e-12)
(20 0 -2.6559583e-12)
(20 6.273571e-33 5.3515983e-13)
(20 -1.8062536e-33 1.6878363e-12)
(20 -5.6892407e-33 7.3950111e-13)
(20 -2.7350122e-33 -1.5489609e-12)
(20 -3.8677471e-33 -1.6138604e-12)
(20 -5.9736587e-33 3.1652606e-12)
(20 1.8757914e-33 -1.7422426e-13)
(20 -2.3765461e-33 -1.6575644e-12)
(20 9.3974642e-33 2.2659067e-12)
(20 6.7705719e-33 1.0574875e-12)
(20 -1.8693633e-33 5.0749662e-13)
(20 3.3471169e-33 -1.6892719e-12)
(20 9.2727885e-35 -3.4743756e-12)
(20 1.7205336e-34 2.5355833e-12)
(20 -3.0845948e-34 1.3800546e-12)
(20 -1.9552784e-33 -1.8732226e-13)
(20 -2.8176222e-34 -1.7889256e-12)
(20 -1.5672826e-33 -9.6166467e-13)
(20 1.476942e-33 1.6892733e-12)
(20 6.7913325e-34 1.6878833e-12)
(20 -9.1640544e-34 -2.6147763e-13)
(20 3.0851057e-33 -9.1160564e-13)
(20 -9.5556014e-33 -1.9559018e-12)
(20 6.2169597e-33 -2.7009192e-12)
(20 -1.655214e-32 3.5653673e-12)
(20 -1.5028792e-33 2.7824074e-12)
(20 -2.0628316e-33 -1.1595401e-14)
(20 3.2250055e-33 -4.237244e-13)
(20 -1.1142597e-32 -2.1281911e-12)
(20 1.7569284e-33 -2.8129601e-13)
(20 -3.9641671e-33 2.0409285e-12)
(20 -2.5953036e-33 2.0636723e-12)
(20 -1.6582488e-33 -1.7020168e-12)
(20 -1.559663e-33 -5.8035762e-13)
(20 -2.8221343e-33 1.3750727e-12)
(20 3.3363335e-33 -9.0044162e-13)
(20 -2.7675909e-33 4.1474083e-13)
(20 5.1515569e-33 1.885752e-13)
(20 0 -1.002008e-13)
(20 2.3353085e-33 9.4467316e-13)
(20 -1.1806532e-32 -1.6945954e-12)
(20 7.1917839e-34 -1.1051089e-12)
(20 -1.7597757e-33 6.6155494e-13)
(20 -8.3299588e-35 9.8898898e-13)
(20 -7.9245841e-33 -2.8929012e-13)
(20 -6.9286434e-33 -1.686631e-12)
(20 0 -4.0559909e-13)
(20 1.0894669e-33 5.9151349e-13)
(20 1.3463207e-32 2.9006495e-13)
(20.119562 -1.5832788e-21 -0.27726551)
(20.138141 -2.4052693e-21 -0.31867912)
(20.138105 -3.4890693e-21 -0.23009477)
(20.087684 -5.9418019e-21 -0.40302051)
(20.071827 -6.0000658e-22 -0.29930042)
(20.028801 -5.3567657e-21 -0.36385397)
(20.014652 2.9216239e-21 -0.20060701)
(20.002286 2.8604718e-22 -0.12990611)
(20.000405 -1.4499527e-21 -0.040586413)
(19.99977 -5.1674898e-22 -0.012705458)
(19.999957 -1.8348169e-22 -0.0011642704)
(19.999987 9.9926565e-24 -1.9358634e-05)
(20.000002 -1.1860206e-23 0.000116104)
(20.000001 -1.0374561e-24 2.0337578e-05)
(20 2.1865408e-25 2.9834723e-06)
(20 -4.3065626e-29 -4.6515903e-07)
(20 -3.5972472e-27 -1.1361552e-07)
(20 9.1350842e-28 -1.7296072e-08)
(20 5.7670924e-30 1.4279328e-09)
(20 1.3359584e-29 4.232298e-10)
(20 5.4756787e-30 4.1230781e-11)
(20 -4.8298077e-32 -3.590187e-12)
(20 0 -7.2388936e-13)
(20 -5.5411642e-34 5.6011725e-14)
(20 3.8026072e-33 9.0662496e-13)
(20 -5.4893546e-33 1.9568585e-12)
(20 -3.3033824e-33 3.5427698e-13)
(20 9.4655502e-34 -8.4559493e-13)
(20 -7.4081184e-35 2.3671231e-13)
(20 -2.8471597e-33 -2.6879151e-13)
(20 -1.41896e-33 -1.9561491e-12)
(20 -2.5041795e-34 1.2441443e-12)
(20 -5.1892999e-34 3.054379e-13)
(20 2.9947138e-34 -1.7518736e-12)
(20 4.438518e-33 2.5973376e-14)
(20 4.1898769e-35 1.8666237e-12)
(20 -6.5789036e-33 2.9381088e-12)
(20 -8.2123187e-33 -2.4726798e-12)
(20 9.4209314e-34 -5.1794551e-13)
(20 -5.796923e-34 1.8926401e-12)
(20 6.9595599e-34 4.3010487e-13)
(20 1.236309e-33 -1.5731411e-12)
(20 -1.5854587e-34 2.8725031e-13)
(20 -5.2410634e-33 3.323011e-12)
(20 -3.4067244e-34 -1.3756469e-12)
(20 -1.0646432e-32 -4.9703917e-12)
(20 -1.1970551e-33 -2.4322602e-13)
(20 -9.0530715e-35 5.9380392e-13)
(20 2.7241831e-33 1.3241726e-12)
(20 4.6399439e-34 -1.4817084e-13)
(20 7.6514252e-33 -1.4221953e-12)
(20 9.0908484e-34 9.2000561e-14)
(20 2.5100871e-34 -2.1843608e-13)
(20 6.0277425e-34 3.9067706e-12)
(20 -1.2466281e-33 5.4635347e-13)
(20 1.8265026e-33 -2.7702681e-13)
(20 1.9470616e-34 1.8897937e-12)
(20 0 -1.4558695e-12)
(20 -4.0601847e-33 -3.5106877e-12)
(20 -4.0460064e-35 -1.3560574e-12)
(20 -4.3516277e-33 1.6794825e-12)
(20 -1.7900386e-33 1.2835084e-12)
(20 -1.3845735e-33 -1.2106117e-12)
(20 -3.591497e-33 -6.9826887e-13)
(20 -6.9422905e-34 5.6329365e-13)
(20 9.0390929e-34 4.975076e-13)
(20 -6.7860481e-34 1.243503e-12)
(20 5.2282098e-33 8.5934907e-13)
(20 -3.9866549e-33 -4.3831563e-13)
(20 4.9760128e-33 -8.2194553e-13)
(20 -3.8666406e-33 1.7865774e-12)
(20 7.6271759e-34 1.0577019e-12)
(20 1.6273202e-33 -1.9632684e-12)
(20 8.2799228e-35 -1.0196514e-12)
(20 3.161654e-34 7.0308513e-13)
(20 1.2716878e-34 -1.3594013e-13)
(20 -2.5209291e-33 1.2061853e-13)
(20 3.3878869e-33 -2.8458244e-14)
(20 -7.8991368e-34 -1.0241506e-12)
(20 -2.7963676e-34 3.5684335e-13)
(20.021379 1.7254752e-21 -0.41804525)
(20.137492 4.4027306e-22 -0.56281809)
(20.131453 2.2412002e-21 -0.43458613)
(20.081023 -5.6551794e-21 -0.64457003)
(20.062559 1.4050029e-22 -0.52996934)
(20.013816 3.4038373e-21 -0.62456598)
(20.004727 5.6218236e-21 -0.35611823)
(19.995035 -5.2447524e-21 -0.23819348)
(19.997332 0 -0.082562976)
(19.998676 1.6580251e-24 -0.027309634)
(19.999773 -5.3171289e-25 -0.0035611788)
(19.999974 3.1086075e-23 -0.00025820427)
(20.00001 2.9280977e-24 0.00019140975)
(20.000003 3.5530696e-24 4.5520446e-05)
(20.000001 -9.2518879e-25 8.2168462e-06)
(20 -1.3701814e-26 -5.028711e-07)
(20 -5.836898e-27 -2.121272e-07)
(20 2.1248269e-27 -4.3528001e-08)
(20 -7.7450892e-29 7.7139667e-10)
(20 1.9487e-29 6.960855e-10)
(20 -5.9943739e-30 1.1344329e-10)
(20 -7.0426335e-34 -8.4814829e-13)
(20 -5.2561722e-34 6.0499899e-13)
(20 1.9761832e-33 -5.7380434e-13)
(20 3.712109e-33 -1.8279349e-12)
(20 -1.3472502e-34 -5.6703103e-13)
(20 -7.6892265e-34 4.8594257e-14)
(20 -4.0343519e-36 1.0651063e-12)
(20 -2.7735413e-33 -8.6817008e-13)
(20 -3.227862e-33 -4.5755297e-13)
(20 9.4264327e-34 -2.5491566e-15)
(20 -5.8637419e-33 2.8490018e-12)
(20 -1.4759613e-35 1.2265781e-12)
(20 1.324781e-33 -1.2657021e-12)
(20 9.941121e-33 1.7684219e-12)
(20 -6.7266948e-34 -4.7925522e-13)
(20 1.2919583e-32 -3.2858797e-12)
(20 -2.0334918e-33 -1.4868886e-12)
(20 -2.5344713e-34 6.6537889e-13)
(20 -9.9472555e-34 -6.2414896e-13)
(20 1.7672964e-33 9.7593538e-13)
(20 -9.6764972e-34 2.2752503e-12)
(20 -8.3954899e-34 -1.5745786e-12)
(20 1.3782155e-34 -3.4569699e-13)
(20 -1.2278907e-33 -1.0951373e-12)
(20 -6.3705299e-34 -2.9935408e-12)
(20 -5.1934231e-33 3.6435926e-12)
(20 -8.9288375e-33 3.7129573e-12)
(20 -7.2924833e-33 8.9148985e-13)
(20 3.583058e-34 -1.1878748e-12)
(20 5.7585178e-34 -3.5033369e-12)
(20 9.6695768e-36 -2.193145e-13)
(20 4.7084603e-33 1.2268661e-12)
(20 9.4990662e-34 8.9474307e-13)
(20 2.4259078e-33 -2.5209185e-12)
(20 -3.5525316e-33 4.8782417e-13)
(20 9.1773953e-33 5.5750569e-12)
(20 1.1410161e-33 -2.012093e-12)
(20 4.3283713e-33 -3.9044929e-12)
(20 1.3710572e-34 4.6689804e-13)
(20 -2.3021347e-33 -7.5281441e-13)
(20 2.3686076e-33 1.0418018e-13)
(20 2.3332193e-34 3.4650808e-13)
(20 -2.1608002e-33 -5.3036871e-15)
(20 1.4142782e-33 2.3845236e-13)
(20 3.6717721e-33 1.4583446e-12)
(20 4.7639908e-34 9.840613e-13)
(20 -1.1088844e-32 -1.7832489e-12)
(20 9.8394857e-33 1.4068719e-13)
(20 1.1463332e-34 6.195099e-13)
(20 1.2628644e-33 -7.9658011e-13)
(20 -1.0939861e-33 4.8992068e-13)
(20 4.5581951e-35 4.1597425e-13)
(20 3.7243631e-35 -3.1170637e-13)
(20 9.8244435e-34 2.404685e-13)
(20 -5.5105266e-35 1.1059373e-13)
(20 4.9065809e-33 -4.0032201e-13)
(20 -5.1514282e-35 -1.8735344e-13)
(20 8.1092469e-34 2.4371247e-13)
(20 2.3657197e-33 -1.488212e-13)
(19.879563 1.6295124e-21 -0.55540738)
(20.129415 6.4776572e-22 -0.83235649)
(20.121564 1.9694201e-22 -0.62346083)
(20.070555 -8.223956e-22 -0.84976166)
(20.04669 -1.162363e-22 -0.78249812)
(19.99303 3.8878786e-22 -0.91005892)
(19.989981 -1.3262202e-20 -0.53084501)
(19.983662 -6.1314693e-22 -0.36495567)
(19.992549 3.2965239e-22 -0.13237532)
(19.996991 1.4226418e-21 -0.045245522)
(19.999486 4.1051788e-22 -0.0065048378)
(19.99995 -5.2483628e-24 -0.00058407345)
(20.000021 -4.3044765e-24 0.00028687304)
(20.000007 4.2969063e-27 7.4886677e-05)
(20.000001 4.9207779e-28 1.4737714e-05)
(20 9.9460283e-29 -5.8895927e-07)
(20 7.1473789e-27 -3.3032958e-07)
(20 3.2057511e-28 -7.5442952e-08)
(20 -1.6361134e-29 3.3148049e-10)
(20 -2.0635037e-30 1.0618226e-09)
(20 9.4411202e-30 1.9350975e-10)
(20 -1.9092032e-33 -3.0365479e-12)
(20 -6.4770987e-32 -1.0179782e-12)
(20 -2.2567032e-32 -5.9911412e-13)
(20 3.0209069e-34 -5.1286712e-13)
(20 -2.9013013e-33 1.3647931e-12)
(20 -2.4539159e-34 -9.0070836e-13)
(20 -1.2727068e-33 -6.5735226e-13)
(20 -2.3275437e-33 2.1134952e-13)
(20 -3.6145483e-34 9.3371828e-13)
(20 2.5868726e-33 5.778528e-13)
(20 -1.5731437e-33 3.8886215e-14)
(20 -1.9560646e-33 2.2977456e-12)
(20 8.1570368e-34 -4.7478029e-13)
(20 2.3496026e-33 2.8416177e-13)
(20 3.1666655e-33 9.4134625e-14)
(20 1.7588131e-34 -3.3142288e-12)
(20 2.7479243e-33 1.5894669e-12)
(20 4.5771927e-33 -5.5996385e-13)
(20 3.2560275e-33 -1.9069219e-12)
(20 2.102928e-33 -8.411572e-13)
(20 2.1308456e-33 1.5377295e-12)
(20 -4.6695292e-33 1.1049287e-12)
(20 -2.3817974e-34 -3.0607823e-12)
(20 -1.3589097e-32 -2.0876506e-12)
(20 2.1563953e-34 2.649773e-12)
(20 -1.4753241e-33 4.4007016e-12)
(20 -2.014368e-32 2.982441e-12)
(20 1.2592082e-33 -6.2367557e-13)
(20 -2.1177274e-32 -5.3703076e-12)
(20 2.9786268e-33 -1.9298663e-12)
(20 1.2379976e-33 3.5802958e-12)
(20 -8.7665435e-34 3.5161283e-14)
(20 2.5063933e-34 -7.9601798e-14)
(20 -5.397014e-33 -1.4645461e-12)
(20 9.4273218e-35 -8.6397613e-13)
(20 -1.6186574e-33 4.1200666e-12)
(20 9.7892763e-34 2.2679152e-13)
(20 4.628671e-34 5.9823615e-13)
(20 1.740751e-33 -4.9308674e-13)
(20 4.0792421e-33 -1.8448824e-12)
(20 -1.1728249e-33 -1.4799465e-13)
(20 1.3646211e-33 -2.4269693e-13)
(20 2.8632215e-33 -8.8881542e-13)
(20 1.2393948e-33 6.6380625e-13)
(20 2.2099115e-33 1.4292332e-12)
(20 9.1130191e-35 -1.5292634e-12)
(20 3.1375147e-33 -1.5069083e-12)
(20 -6.2050289e-34 1.9881338e-12)
(20 9.1860501e-34 1.8344236e-12)
(20 -7.1835853e-35 -4.5558316e-13)
(20 -3.2089461e-35 -4.8450321e-13)
(20 2.959168e-34 -2.6715238e-13)
(20 6.0592794e-34 -6.2163575e-13)
(20 3.2642859e-35 -1.0687997e-12)
(20 1.0761459e-33 5.7395896e-13)
(20 -2.6027599e-33 1.0813652e-12)
(20 -3.8907006e-33 -4.156694e-13)
(20 7.0699195e-34 -5.7140074e-13)
(20 -1.4360123e-34 1.5217748e-13)
(19.700502 1.5433604e-21 -0.68867335)
(20.116678 8.9077782e-21 -1.1135296)
(20.111126 0 -0.81230916)
(20.056474 2.8443075e-23 -1.0469011)
(20.024378 2.0537021e-21 -1.0436601)
(19.964372 6.5953714e-21 -1.2134247)
(19.969674 -3.2533114e-20 -0.72371732)
(19.968173 -2.5198532e-21 -0.5090593)
(19.985903 1.586534e-20 -0.19114442)
(19.994574 2.2550984e-24 -0.067333585)
(19.999046 -5.111569e-22 -0.010447185)
(19.999906 -1.8410715e-22 -0.0010854361)
(20.000035 3.3836258e-25 0.00039182004)
(20.000012 -6.9286227e-24 0.00011123975)
(20.000002 1.0332248e-24 2.3686366e-05)
(20 -4.5728341e-26 -5.5228919e-07)
(20 1.151543e-26 -4.712772e-07)
(20 -1.0652395e-26 -1.1841051e-07)
(20 -3.1001386e-28 -8.1631836e-10)
(20 -2.2972847e-29 1.5052696e-09)
(20 -3.9979984e-29 3.0873925e-10)
(20 6.3577256e-31 1.2568209e-12)
(20 -1.6675457e-31 -3.4224366e-12)
(20 -4.893292e-32 -9.3711491e-13)
(20 -5.4229482e-34 -8.3907875e-14)
(20 3.9194562e-33 -2.0177548e-13)
(20 -1.4067836e-32 -3.3416745e-12)
(20 3.1029158e-34 1.3613029e-12)
(20 -5.2239136e-33 1.8317046e-12)
(20 6.6481368e-33 -8.8571801e-13)
(20 -1.1213141e-33 1.7378591e-12)
(20 4.0446487e-33 2.6144601e-13)
(20 -2.1669392e-33 1.1303012e-12)
(20 -5.0323188e-34 -1.2079594e-12)
(20 5.09161e-34 -7.397374e-13)
(20 8.5131413e-35 -6.0056311e-13)
(20 4.7583749e-34 -2.0501483e-12)
(20 6.3313095e-33 2.0969201e-12)
(20 -6.3719864e-34 -9.1140633e-13)
(20 -2.6982044e-34 6.1322149e-13)
(20 -2.1638892e-35 -1.1256413e-12)
(20 9.571603e-33 -1.1424872e-12)
(20 2.3466335e-33 1.2415399e-12)
(20 1.2544036e-33 1.9223154e-13)
(20 -1.6372092e-33 2.5360161e-12)
(20 1.7979496e-33 1.3065934e-12)
(20 -3.6766492e-34 1.1910432e-12)
(20 3.3332997e-33 1.2914298e-12)
(20 1.5112852e-33 -2.4313428e-12)
(20 5.3371292e-33 -2.1590282e-12)
(20 3.0471102e-35 -1.7125329e-12)
(20 3.4491934e-34 -1.0212298e-12)
(20 9.4756102e-34 1.1807198e-12)
(20 -3.6926825e-34 -1.2122021e-12)
(20 2.1215844e-33 2.6644407e-13)
(20 -3.8517341e-33 5.3047097e-13)
(20 8.1323119e-34 1.2647633e-12)
(20 -4.52666e-34 6.6741144e-13)
(20 -8.3500575e-34 -8.0979848e-14)
(20 5.4823666e-33 1.3917815e-12)
(20 3.225377e-33 -5.785638e-13)
(20 3.193244e-33 -1.8826319e-12)
(20 1.4299888e-33 1.2087539e-13)
(20 6.1852035e-34 3.1458339e-13)
(20 -2.9466603e-34 5.9536982e-14)
(20 -4.3345764e-34 6.825966e-13)
(20 -2.1720016e-34 -5.1418078e-13)
(20 -1.1620436e-33 -2.7759337e-13)
(20 4.8679102e-34 5.4629194e-13)
(20 1.4322644e-33 4.6968984e-13)
(20 2.324642e-33 -3.0984509e-13)
(20 3.786307e-35 9.2112702e-14)
(20 -6.8247626e-34 7.7501481e-13)
(20 -1.3483476e-33 -4.1525907e-13)
(20 1.5144277e-34 -2.5192808e-14)
(20 6.8596137e-33 -7.9817023e-13)
(20 4.4817803e-33 -3.8890114e-13)
(20 -9.6871997e-35 6.9725694e-13)
(20 9.6507923e-34 -4.8074867e-13)
(20 5.6243679e-35 1.7841454e-13)
(19.486264 -7.8024893e-25 -0.81581207)
(20.0995 -9.7388342e-21 -1.408296)
(20.09787 2.9716172e-21 -1.0019917)
(20.039071 -6.4380948e-23 -1.2454819)
(19.99608 -3.5882113e-23 -1.3197308)
(19.927431 7.3258755e-23 -1.529514)
(19.943244 3.322342e-23 -0.93415555)
(19.947565 -2.1638878e-20 -0.67066183)
(19.976833 -7.281115e-21 -0.25950945)
(19.991137 6.0671064e-21 -0.094048613)
(19.99838 1.4782867e-21 -0.015569762)
(19.999828 -1.1639546e-22 -0.0018090779)
(20.000052 7.1928411e-24 0.00050121332)
(20.000019 -1.2554854e-23 0.00015501872)
(20.000004 -2.0211987e-24 3.5496991e-05)
(20 3.9912894e-25 -3.1939253e-07)
(20 -1.7929217e-27 -6.3130401e-07)
(20 2.0956988e-26 -1.7403661e-07)
(20 4.7030247e-29 -3.0780093e-09)
(20 2.8067324e-29 1.9995652e-09)
(20 -2.2336279e-32 4.5748072e-10)
(20 2.9175268e-33 7.0517861e-12)
(20 -9.1910639e-34 -4.7391552e-12)
(20 -1.0391011e-34 -4.644961e-13)
(20 2.9663816e-33 -1.0777056e-12)
(20 3.0569074e-33 1.9048962e-13)
(20 2.7826022e-37 -3.3825226e-13)
(20 5.6028996e-33 -4.064741e-13)
(20 6.0717219e-34 1.2740169e-12)
(20 3.2393648e-33 -3.7556575e-13)
(20 1.155071e-36 3.0352988e-13)
(20 -2.6176566e-35 1.9388259e-13)
(20 -2.7735572e-33 1.0483528e-12)
(20 3.3593751e-35 -3.0043395e-13)
(20 -2.4384421e-34 -5.687041e-14)
(20 -4.3443593e-34 1.6354994e-12)
(20 -6.4571054e-34 -2.1341918e-12)
(20 -2.4461975e-33 -5.1709362e-13)
(20 1.4619314e-32 4.7501313e-13)
(20 -9.2692086e-33 -1.1910113e-12)
(20 -6.8778528e-34 1.0651738e-12)
(20 1.2901238e-32 2.587878e-12)
(20 4.4815155e-34 7.8297345e-13)
(20 8.9222703e-33 -1.1963307e-12)
(20 -3.4732003e-33 1.6777452e-12)
(20 -3.943968e-33 -5.0832745e-13)
(20 4.225357e-33 -3.9771478e-13)
(20 -1.4543345e-33 1.3270701e-12)
(20 1.0848277e-33 -2.9229192e-12)
(20 -1.2093418e-33 -1.678468e-12)
(20 -4.395252e-35 3.0194105e-13)
(20 1.3199876e-32 1.5912108e-12)
(20 -1.2236915e-33 2.1282175e-13)
(20 1.1916655e-32 -2.9884629e-12)
(20 -1.8050073e-33 4.3341571e-13)
(20 3.743085e-33 3.5389149e-12)
(20 3.3358177e-33 9.1453659e-13)
(20 4.8009523e-33 -2.5042251e-12)
(20 -8.4924059e-34 -1.8488755e-13)
(20 6.760386e-33 3.084068e-12)
(20 4.3800933e-33 6.2466435e-13)
(20 -3.1771676e-33 -1.7965794e-12)
(20 6.6383794e-33 -1.5213864e-12)
(20 -5.3746561e-34 -2.3840034e-13)
(20 -1.6710558e-34 7.7826455e-13)
(20 1.2076336e-33 -1.4711165e-13)
(20 -1.0968246e-33 -1.0952116e-12)
(20 -1.9219659e-33 6.8791205e-13)
(20 1.5708632e-35 6.5797448e-13)
(20 8.0721341e-34 1.047628e-15)
(20 8.4626347e-34 -7.3001668e-13)
(20 7.8599997e-34 6.9985582e-13)
(20 2.2599449e-34 9.1058987e-13)
(20 7.8611884e-34 -1.0635378e-12)
(20 9.2622947e-35 2.2239783e-13)
(20 -2.8571517e-33 1.2781984e-13)
(20 -2.043381e-33 1.9583667e-13)
(20 1.7695764e-34 5.6611204e-13)
(20 -1.3495923e-33 -9.2944375e-13)
(20 4.0755393e-34 -1.5246098e-13)
(19.232841 -2.7717605e-21 -0.94210488)
(20.075314 -1.2480801e-20 -1.7257056)
(20.080873 -6.3455213e-21 -1.1919128)
(20.0168 -1.5291837e-20 -1.4476702)
(19.961953 4.0024832e-22 -1.6076255)
(19.880947 -5.5026804e-21 -1.8577221)
(19.90948 -9.6756021e-23 -1.1635923)
(19.920822 -3.1118071e-23 -0.85001649)
(19.964797 7.4422371e-21 -0.33775746)
(19.986425 7.6265708e-21 -0.12564497)
(19.997419 8.9433597e-23 -0.021994638)
(19.999702 -1.6545261e-23 -0.0027917742)
(20.000072 1.3709765e-24 0.00061047388)
(20.000028 9.7529119e-25 0.00020625425)
(20.000006 -3.9518868e-25 5.0467929e-05)
(20 1.7404255e-25 1.7253681e-07)
(20 6.5625404e-28 -8.0581295e-07)
(20 7.6823246e-27 -2.4319379e-07)
(20 1.4502123e-28 -6.8368831e-09)
(20 4.7755915e-29 2.5231111e-09)
(20 -2.2386041e-29 6.4571598e-10)
(20 -2.0389914e-30 1.5843982e-11)
(20 -6.6486748e-34 -4.6900354e-12)
(20 4.4234051e-32 5.3205154e-14)
(20 -9.8302357e-33 -1.5211991e-12)
(20 -1.5477968e-32 -1.660203e-12)
(20 6.0098595e-33 -1.7324187e-12)
(20 9.2067162e-33 -1.9975643e-12)
(20 9.4476011e-33 2.6521287e-12)
(20 1.2482027e-33 2.1722929e-12)
(20 2.2174106e-33 -1.5111776e-12)
(20 3.074878e-33 5.5792574e-13)
(20 -9.1501527e-34 3.3612304e-13)
(20 2.0152397e-33 -1.2615724e-12)
(20 7.8007282e-34 -5.7343032e-13)
(20 -2.9623091e-33 1.9365317e-12)
(20 -1.2234714e-33 -3.2252477e-13)
(20 -2.1489291e-33 1.5106116e-12)
(20 -1.7156537e-32 3.6640059e-12)
(20 7.9061775e-34 -3.458276e-12)
(20 1.1010123e-33 1.9532831e-14)
(20 0 3.9248317e-12)
(20 5.2351948e-33 -1.135556e-12)
(20 2.20026e-33 -9.2217811e-13)
(20 -3.1245327e-34 1.7500618e-12)
(20 5.4133835e-33 -2.4341802e-12)
(20 4.8270478e-33 -1.0084372e-12)
(20 4.4057971e-34 4.5733732e-13)
(20 -3.0414021e-33 -1.8793e-12)
(20 6.0780854e-33 1.5211525e-12)
(20 -1.8422055e-34 -1.1326647e-13)
(20 -2.2190014e-33 4.5934791e-13)
(20 5.2599993e-33 2.1807991e-12)
(20 -4.6803663e-33 -5.1405427e-13)
(20 3.2774942e-33 -2.6185334e-12)
(20 2.4642424e-33 -2.932552e-12)
(20 3.31936e-33 6.3620707e-13)
(20 -2.2436536e-33 2.235895e-12)
(20 4.2445113e-33 6.1695881e-14)
(20 3.62011e-34 -2.8731242e-13)
(20 -8.4082828e-33 2.6093331e-12)
(20 2.177544e-33 1.995632e-12)
(20 -4.5081046e-33 -1.2700986e-12)
(20 -5.8790928e-33 -1.2387832e-12)
(20 3.2479025e-34 2.556542e-13)
(20 -2.9835532e-33 3.6009898e-13)
(20 -3.4164493e-34 -1.1397669e-12)
(20 1.7596138e-33 -2.2043713e-13)
(20 -9.8291727e-34 3.6494872e-13)
(20 1.4662915e-33 4.6677842e-13)
(20 1.7678844e-34 6.3444392e-15)
(20 -4.4528461e-33 -2.2810088e-13)
(20 9.5867187e-34 -2.5462922e-13)
(20 -4.3298299e-34 -3.2695884e-13)
(20 2.8068337e-33 4.4591228e-13)
(20 2.9243303e-34 -1.4334136e-13)
(20 -3.4472599e-33 5.2125972e-14)
(20 4.7738407e-35 -2.7026074e-14)
(20 -2.7659156e-34 6.9246059e-13)
(20 1.5903865e-34 -3.4374892e-13)
(18.939579 -7.3709143e-21 -1.066799)
(20.04323 -2.4817805e-21 -2.0681563)
(20.059647 -4.1741999e-21 -1.3843212)
(19.989786 2.834082e-20 -1.6542215)
(19.920908 1.2281455e-21 -1.9040888)
(19.824143 1.2861216e-20 -2.1981956)
(19.867324 2.8596225e-20 -1.4117627)
(19.886945 -3.0814553e-20 -1.0470243)
(19.949255 -9.6634459e-21 -0.42602302)
(19.980162 -4.4217968e-21 -0.16229325)
(19.996085 1.0629846e-21 -0.029827808)
(19.999512 2.7776039e-22 -0.0040673987)
(20.000095 -1.6359415e-25 0.00071442512)
(20.00004 5.3653598e-24 0.00026487362)
(20.000009 3.142696e-24 6.8857594e-05)
(20 -4.4139405e-25 9.849054e-07)
(20 1.0090515e-27 -9.8925102e-07)
(20 -1.14809e-26 -3.265328e-07)
(20 2.2615056e-27 -1.2493969e-08)
(20 -1.3766528e-29 3.0491476e-09)
(20 8.7661695e-29 8.765354e-10)
(20 5.0274026e-31 2.9971034e-11)
(20 1.3254415e-31 -6.5894917e-12)
(20 -6.5483635e-32 -3.3068872e-12)
(20 -4.1368626e-35 -1.1135366e-12)
(20 -2.8720345e-33 1.6002627e-12)
(20 -2.2650217e-33 2.4035527e-12)
(20 6.5291163e-33 6.2079401e-13)
(20 3.2020613e-33 -1.4637688e-12)
(20 -1.9410118e-33 7.2460291e-13)
(20 -1.7157382e-33 -4.5910621e-13)
(20 2.294032e-33 -1.8785863e-12)
(20 -3.5988207e-33 6.0823789e-13)
(20 6.5928613e-33 1.7738592e-12)
(20 -5.0787692e-34 -9.4501604e-13)
(20 2.4333867e-33 -8.4820159e-13)
(20 -3.6539107e-33 3.7398916e-13)
(20 1.057053e-33 3.1967128e-13)
(20 -3.3314441e-33 1.3774652e-13)
(20 1.3314691e-33 -2.9666684e-12)
(20 -7.459257e-34 -1.0789865e-12)
(20 3.6095246e-33 3.0494724e-12)
(20 1.7810271e-33 7.9661711e-14)
(20 3.3060781e-33 1.4924195e-12)
(20 4.0109984e-34 4.869007e-12)
(20 4.2915157e-33 -2.0969631e-12)
(20 3.8476934e-33 -3.1936161e-12)
(20 1.3941285e-32 3.6725617e-12)
(20 7.3210839e-33 -2.5789252e-13)
(20 3.5929587e-33 -3.5169497e-12)
(20 4.6131399e-33 -2.6475092e-12)
(20 7.5173814e-34 -1.5453338e-13)
(20 -8.4297923e-33 2.7049723e-12)
(20 5.0246192e-33 1.1776942e-12)
(20 -3.4733812e-33 -6.7759473e-13)
(20 3.793681e-33 -2.537721e-12)
(20 -6.996469e-33 -1.0478087e-12)
(20 3.8386866e-33 1.4859579e-12)
(20 -7.0862019e-34 5.0860452e-13)
(20 2.6110517e-33 -1.4577365e-12)
(20 -1.2266144e-35 9.7137723e-14)
(20 -7.5637089e-33 8.8661918e-13)
(20 2.1309403e-33 -1.3264089e-12)
(20 5.5255302e-33 1.8237652e-12)
(20 -4.0110243e-34 9.4366385e-13)
(20 8.8274375e-34 -5.8159203e-13)
(20 7.6665027e-34 5.9849662e-13)
(20 9.0847606e-34 1.1367138e-12)
(20 4.8065991e-33 -1.1646784e-12)
(20 -8.7713716e-34 6.6745042e-13)
(20 -1.7855359e-34 2.0226466e-12)
(20 6.9276881e-34 -6.3986685e-13)
(20 -3.9528756e-34 -8.7615585e-13)
(20 3.1470908e-33 -5.7570665e-13)
(20 -4.6617473e-34 -4.8286544e-14)
(20 2.4589201e-35 6.3535851e-14)
(20 2.9001398e-33 -2.7788473e-13)
(20 -7.6888942e-34 -1.0511517e-14)
(20 -2.7268416e-34 3.8815449e-13)
(20 -3.1034961e-33 -3.2007127e-14)
(18.609169 4.4377894e-21 -1.1880728)
(20.002396 1.5929124e-20 -2.4381775)
(20.034196 3.783478e-21 -1.5804561)
(19.958334 1.301544e-21 -1.8665853)
(19.872031 -1.9578809e-22 -2.2104526)
(19.755898 6.2763807e-21 -2.5519171)
(19.815766 4.5800687e-20 -1.6787142)
(19.844819 -1.6376068e-20 -1.2617679)
(19.929583 -2.1238544e-20 -0.52458018)
(19.972024 -4.7641154e-22 -0.20421419)
(19.994287 1.3581613e-22 -0.03918113)
(19.999237 -2.807445e-23 -0.0056704526)
(20.00012 5.2025007e-25 0.00080779758)
(20.000056 7.3165447e-24 0.00033082683)
(20.000014 3.2654341e-24 9.0922247e-05)
(20 3.1437875e-25 2.1789381e-06)
(20 1.103244e-26 -1.1755856e-06)
(20 1.4993153e-26 -4.2469315e-07)
(20 -1.4122712e-28 -2.0429641e-08)
(20 2.5698505e-30 3.5483822e-09)
(20 3.4537132e-29 1.153225e-09)
(20 4.1538245e-30 4.862729e-11)
(20 9.3147489e-32 -1.0594083e-11)
(20 7.5108238e-32 -1.7539983e-12)
(20 -4.5916814e-33 -2.2344925e-12)
(20 2.5510482e-33 -1.7329225e-13)
(20 1.5554077e-35 1.4293371e-12)
(20 3.2266353e-33 3.9033394e-13)
(20 3.9131756e-34 9.4375849e-13)
(20 0 -2.8858166e-13)
(20 -5.967419e-34 -6.8478383e-13)
(20 -2.3988654e-35 9.3956547e-13)
(20 2.2521617e-34 6.7234848e-13)
(20 -7.7212194e-34 -1.5865139e-13)
(20 -4.3549389e-34 -2.1419996e-13)
(20 2.5819541e-33 -2.6552155e-13)
(20 1.136472e-33 1.6540075e-12)
(20 -1.5863269e-34 -1.2407354e-12)
(20 4.0263765e-34 -4.047189e-13)
(20 4.0787513e-33 -9.3457871e-13)
(20 4.4547322e-33 -4.557124e-12)
(20 5.0763734e-33 9.0208019e-13)
(20 9.97176e-34 1.9449033e-12)
(20 -3.5879041e-33 1.2930361e-12)
(20 6.6172911e-35 1.7237512e-12)
(20 1.6375796e-33 8.4131139e-13)
(20 8.3593436e-33 -2.2181898e-12)
(20 1.4139097e-33 1.9186722e-12)
(20 9.0771309e-33 3.7880178e-12)
(20 -5.9765519e-33 -3.510101e-12)
(20 -2.6165956e-33 -2.5416167e-12)
(20 1.482508e-34 1.1410456e-12)
(20 5.5412684e-33 -1.1257229e-12)
(20 2.0720312e-34 2.234298e-13)
(20 1.0170518e-32 2.4543761e-12)
(20 -1.3765761e-32 4.7997948e-13)
(20 6.5155887e-33 -8.7490778e-13)
(20 -1.0677861e-32 -1.6614233e-12)
(20 -5.5788008e-33 -1.6560858e-12)
(20 4.5086907e-33 -1.6353952e-12)
(20 -5.5059336e-34 -8.0086366e-13)
(20 5.2269958e-34 1.3832788e-12)
(20 4.7773675e-33 -2.5760165e-13)
(20 -5.7931134e-34 -6.4951294e-13)
(20 3.2853287e-33 -5.2602128e-13)
(20 -6.8960678e-33 -2.1786426e-13)
(20 2.0813671e-34 -4.6680529e-15)
(20 1.7620115e-33 4.9465963e-13)
(20 -6.8678493e-35 -4.3719228e-14)
(20 -7.8422762e-34 5.6174413e-13)
(20 -2.9683134e-33 1.9037574e-12)
(20 -3.3225951e-33 -3.721254e-13)
(20 1.1770215e-33 4.404536e-13)
(20 3.9282978e-33 -8.3543882e-15)
(20 1.310892e-33 5.2587028e-14)
(20 -7.6815896e-34 6.6266446e-13)
(20 2.8835543e-34 -1.1052685e-12)
(20 0 -4.7603702e-13)
(20 5.8748738e-33 4.0572336e-13)
(20 0 -2.9428625e-14)
(18.24469 -4.9672662e-21 -1.3040233)
(19.950882 -1.4850953e-21 -2.8382447)
(20.00415 -4.2679826e-21 -1.7817627)
(19.921364 1.3960011e-20 -2.0866191)
(19.814026 3.4359934e-21 -2.5287687)
(19.674666 2.1189045e-21 -2.9204616)
(19.753428 1.4532877e-21 -1.965187)
(19.79311 -1.9715668e-20 -1.4945403)
(19.905018 -2.3106704e-23 -0.63387146)
(19.961616 6.5465347e-24 -0.25170013)
(19.991908 5.1757352e-21 -0.050180142)
(19.99885 4.7290042e-22 -0.0076376046)
(20.000146 -2.4341811e-23 0.00088512008)
(20.000075 7.4940335e-24 0.00040411367)
(20.000019 3.6315478e-25 0.00011690514)
(20.000001 -7.893096e-25 3.8175824e-06)
(20 -5.6883101e-29 -1.3583589e-06)
(20 -1.6299393e-26 -5.3838057e-07)
(20 -2.0490241e-27 -3.1004127e-08)
(20 -2.966615e-29 3.9878094e-09)
(20 -1.2514981e-28 1.4768005e-09)
(20 -1.3815218e-30 7.5846234e-11)
(20 -1.4668676e-31 -1.2255584e-11)
(20 -7.2252604e-32 -1.0015648e-12)
(20 5.1916161e-33 1.3342901e-12)
(20 1.7937039e-33 -4.3568958e-13)
(20 2.7955508e-33 -8.1540466e-13)
(20 -2.2645676e-34 -6.6503128e-13)
(20 2.603366e-34 8.0238014e-13)
(20 1.615605e-33 2.144928e-13)
(20 2.2113629e-36 -6.197758e-13)
(20 1.1369945e-34 1.2485923e-13)
(20 -7.7272173e-34 3.7235288e-13)
(20 -1.0032765e-33 -7.2246952e-13)
(20 2.0949531e-34 1.4387418e-13)
(20 3.3942685e-33 1.3734989e-12)
(20 8.9151786e-34 5.5821912e-13)
(20 3.3081353e-33 -5.4375619e-13)
(20 1.2262035e-33 -2.0635744e-12)
(20 2.5592617e-33 -1.8529448e-12)
(20 4.1441356e-34 -6.7353532e-13)
(20 5.7648988e-33 -1.3647653e-12)
(20 2.639988e-33 -7.2427253e-13)
(20 8.2732085e-33 1.8991861e-12)
(20 -1.0661554e-33 1.3987358e-12)
(20 -2.5993848e-35 -1.1269559e-13)
(20 3.1393549e-34 -2.4389468e-12)
(20 1.7753724e-33 1.5936552e-12)
(20 2.0566696e-33 3.2395425e-12)
(20 0 -1.0781713e-12)
(20 -3.3032624e-33 -1.0568153e-12)
(20 -2.3948678e-33 4.4391557e-13)
(20 -9.9010418e-34 5.6787879e-14)
(20 3.8514062e-33 -1.4154322e-12)
(20 7.8445076e-34 1.8460471e-12)
(20 1.5278033e-32 5.0191728e-12)
(20 -2.7388363e-33 9.0862921e-13)
(20 5.7269007e-33 -3.8793683e-12)
(20 -4.2809707e-34 -3.7651528e-12)
(20 1.4026568e-33 -1.4852414e-12)
(20 2.6298247e-33 4.2758332e-13)
(20 -1.223631e-34 1.8032521e-12)
(20 -3.719693e-33 -5.3728887e-13)
(20 -8.4080297e-34 -2.9166145e-12)
(20 -1.0805493e-32 2.3624165e-12)
(20 -1.2372005e-33 2.5615798e-12)
(20 -4.1875202e-33 -1.8702036e-12)
(20 3.5752967e-33 -1.2484764e-12)
(20 -2.2929717e-33 -8.3709399e-13)
(20 9.5114875e-35 -1.0884196e-12)
(20 3.094506e-33 7.7215069e-13)
(20 2.0823902e-33 1.8686599e-12)
(20 -4.2687831e-34 -2.7469956e-14)
(20 3.4626601e-33 -6.3624237e-13)
(20 1.4469806e-33 2.4241975e-13)
(20 6.4363454e-34 -1.4598961e-14)
(20 1.6422323e-33 2.7597523e-13)
(20 -5.0889368e-33 -7.9887423e-13)
(20 -3.7558689e-33 3.0364681e-13)
(20 8.5095076e-34 1.1014388e-13)
(17.848262 -5.2030219e-21 -1.4138735)
(19.888033 -1.5081942e-21 -3.2699745)
(19.969302 -2.9326551e-22 -1.9895711)
(19.877759 1.3677572e-21 -2.3175113)
(19.745931 -3.8590904e-22 -2.858961)
(19.578948 -2.673221e-22 -3.3049012)
(19.678625 -1.4776826e-20 -2.271738)
(19.730186 -3.8397506e-21 -1.7461948)
(19.874631 2.343493e-21 -0.7545258)
(19.948457 -2.8942176e-20 -0.30512125)
(19.988809 -3.930239e-22 -0.062972755)
(19.998322 1.4250988e-21 -0.010009229)
(20.000172 3.7685312e-23 0.00094063441)
(20.000098 -7.5113529e-25 0.00048484072)
(20.000027 9.6310402e-24 0.00014704732)
(20.000001 4.4217469e-26 5.969534e-06)
(20 -5.9628215e-27 -1.5310315e-06)
(20 1.730924e-26 -6.683584e-07)
(20 2.3373431e-28 -4.457764e-08)
(20 -6.1762341e-29 4.3413059e-09)
(20 9.7622429e-32 1.8494549e-09)
(20 -6.5245874e-30 1.1065784e-10)
(20 3.2334717e-33 -1.2932208e-11)
(20 -9.1117589e-33 -2.4918236e-12)
(20 -7.2671099e-33 -2.2469762e-13)
(20 3.908559e-33 1.3146558e-13)
(20 -4.29912e-34 1.3052477e-12)
(20 2.233076e-33 -7.2860549e-13)
(20 9.0062796e-34 -9.9188178e-13)
(20 -1.9794774e-34 1.0697479e-12)
(20 -2.2333496e-33 3.3380135e-13)
(20 7.2250294e-34 -1.2178549e-12)
(20 2.3262057e-34 5.5959723e-13)
(20 -1.254303e-35 7.6029307e-13)
(20 -3.2089188e-33 -1.3400931e-12)
(20 -4.3769994e-33 -4.2589176e-13)
(20 -1.9325152e-33 2.9252506e-12)
(20 1.4295737e-33 -4.6396338e-13)
(20 2.8711156e-33 -3.7171457e-12)
(20 2.0233592e-33 8.6867644e-14)
(20 5.6681655e-33 8.1062537e-13)
(20 3.0423512e-33 8.6796527e-13)
(20 2.6460638e-36 -5.0284785e-14)