/*--------------------------------*- C++ -*----------------------------------*\
| =========                 |                                                 |
| \\      /  F ield         | OpenFOAM: The Open Source CFD Toolbox           |
|  \\    /   O peration     | Version:  2406                                  |
|   \\  /    A nd           | Website:  www.openfoam.com                      |
|    \\/     M anipulation  |                                                 |
\*---------------------------------------------------------------------------*/
FoamFile
{
    version     2.0;
    format      ascii;
    arch        "LSB;label=32;scalar=64";
    class       volScalarField;
    location    "6e-05";
    object      alphat;
}
// * * * * * * * * * * * * * * * * * * * * * * * * * * * * * * * * * * * * * //

dimensions      [1 -1 -1 0 0 0 0];

internalField   nonuniform List<scalar> 
16000
(
1.1506163e-05
7.4296048e-05
0.00045928306
0.00017476948
0.00023364925
0.00014312337
0.00015430113
0.00018270627
0.00021150931
0.00047036823
0.0010495741
0.0011663346
0.0011663353
0.0011663355
0.0011663357
0.0011663357
0.0011663357
0.0011663357
0.0011663357
0.0011663357
0.0011663357
0.0011663357
0.0011663357
0.0011663357
0.0011663357
0.0011663357
0.0011663357
0.0011663357
0.0011663357
0.0011663357
0.0011663357
0.0011663357
0.0011663357
0.0011663357
0.0011663357
0.0011663357
0.0011663357
0.0011663357
0.0011663357
0.0011663357
0.0011663357
0.0011663357
0.0011663357
0.0011663357
0.0011663357
0.0011663357
0.0011663357
0.0011663357
0.0011663357
0.0011663357
0.0011663357
0.0011663357
0.0011663357
0.0011663357
0.0011663357
0.0011663357
0.0011663357
0.0011663357
0.0011663357
0.0011663357
0.0011663357
0.0011663357
0.0011663357
0.0011663357
0.0011663357
0.0011663357
0.0011663357
0.0011663357
0.0011663357
0.0011663357
0.0011663357
0.0011663357
0.0011663357
0.0011663357
0.0011663357
0.0011663357
0.0011663357
0.0011663357
0.0011663357
0.0011663357
1.1167294e-05
8.4671855e-05
0.00012976043
0.00012620226
0.00012382731
0.00013171684
9.9218385e-05
8.6317471e-05
7.6362161e-05
0.00014305792
0.00034132811
0.0011663392
0.0011663354
0.0011663353
0.0011663356
0.0011663356
0.0011663357
0.0011663357
0.0011663357
0.0011663357
0.0011663357
0.0011663357
0.0011663357
0.0011663357
0.0011663357
0.0011663357
0.0011663357
0.0011663357
0.0011663357
0.0011663357
0.0011663357
0.0011663357
0.0011663357
0.0011663357
0.0011663357
0.0011663357
0.0011663357
0.0011663357
0.0011663357
0.0011663357
0.0011663357
0.0011663357
0.0011663357
0.0011663357
0.0011663357
0.0011663357
0.0011663357
0.0011663357
0.0011663357
0.0011663357
0.0011663357
0.0011663357
0.0011663357
0.0011663357
0.0011663357
0.0011663357
0.0011663357
0.0011663357
0.0011663357
0.0011663357
0.0011663357
0.0011663357
0.0011663357
0.0011663357
0.0011663357
0.0011663357
0.0011663357
0.0011663357
0.0011663357
0.0011663357
0.0011663357
0.0011663357
0.0011663357
0.0011663357
0.0011663357
0.0011663357
0.0011663357
0.0011663357
0.0011663357
0.0011663357
1.0862542e-05
0.00012179522
4.8099812e-05
9.0134501e-05
6.6350134e-05
0.00012508959
6.8767635e-05
5.4329166e-05
4.5037194e-05
7.864323e-05
0.00016689909
0.00059013261
0.0011663357
0.001166335
0.0011663355
0.0011663356
0.0011663357
0.0011663357
0.0011663357
0.0011663357
0.0011663357
0.0011663357
0.0011663357
0.0011663357
0.0011663357
0.0011663357
0.0011663357
0.0011663357
0.0011663357
0.0011663357
0.0011663357
0.0011663357
0.0011663357
0.0011663357
0.0011663357
0.0011663357
0.0011663357
0.0011663357
0.0011663357
0.0011663357
0.0011663357
0.0011663357
0.0011663357
0.0011663357
0.0011663357
0.0011663357
0.0011663357
0.0011663357
0.0011663357
0.0011663357
0.0011663357
0.0011663357
0.0011663357
0.0011663357
0.0011663357
0.0011663357
0.0011663357
0.0011663357
0.0011663357
0.0011663357
0.0011663357
0.0011663357
0.0011663357
0.0011663357
0.0011663357
0.0011663357
0.0011663357
0.0011663357
0.0011663357
0.0011663357
0.0011663357
0.0011663357
0.0011663357
0.0011663357
0.0011663357
0.0011663357
0.0011663357
0.0011663357
0.0011663357
0.0011663357
6.5833989e-06
0.00035077891
3.0888407e-05
6.9630283e-05
4.4216357e-05
0.00011754306
5.5868771e-05
3.8973467e-05
3.0921857e-05
5.1185763e-05
9.9375231e-05
0.00033707785
0.0011663363
0.0011663347
0.0011663354
0.0011663356
0.0011663357
0.0011663357
0.0011663357
0.0011663357
0.0011663357
0.0011663357
0.0011663357
0.0011663357
0.0011663357
0.0011663357
0.0011663357
0.0011663357
0.0011663357
0.0011663357
0.0011663357
0.0011663357
0.0011663357
0.0011663357
0.0011663357
0.0011663357
0.0011663357
0.0011663357
0.0011663357
0.0011663357
0.0011663357
0.0011663357
0.0011663357
0.0011663357
0.0011663357
0.0011663357
0.0011663357
0.0011663357
0.0011663357
0.0011663357
0.0011663357
0.0011663357
0.0011663357
0.0011663357
0.0011663357
0.0011663357
0.0011663357
0.0011663357
0.0011663357
0.0011663357
0.0011663357
0.0011663357
0.0011663357
0.0011663357
0.0011663357
0.0011663357
0.0011663357
0.0011663357
0.0011663357
0.0011663357
0.0011663357
0.0011663357
0.0011663357
0.0011663357
0.0011663357
0.0011663357
0.0011663357
0.0011663357
0.0011663357
0.0011663357
4.8684243e-06
0.00022374895
2.333769e-05
5.570788e-05
3.5175048e-05
0.0001065778
5.173942e-05
3.0138804e-05
2.3026843e-05
3.6585899e-05
6.6116374e-05
0.00021578482
0.0011663375
0.0011663344
0.0011663352
0.0011663356
0.0011663357
0.0011663357
0.0011663357
0.0011663357
0.0011663357
0.0011663357
0.0011663357
0.0011663357
0.0011663357
0.0011663357
0.0011663357
0.0011663357
0.0011663357
0.0011663357
0.0011663357
0.0011663357
0.0011663357
0.0011663357
0.0011663357
0.0011663357
0.0011663357
0.0011663357
0.0011663357
0.0011663357
0.0011663357
0.0011663357
0.0011663357
0.0011663357
0.0011663357
0.0011663357
0.0011663357
0.0011663357
0.0011663357
0.0011663357
0.0011663357
0.0011663357
0.0011663357
0.0011663357
0.0011663357
0.0011663357
0.0011663357
0.0011663357
0.0011663357
0.0011663357
0.0011663357
0.0011663357
0.0011663357
0.0011663357
0.0011663357
0.0011663357
0.0011663357
0.0011663357
0.0011663357
0.0011663357
0.0011663357
0.0011663357
0.0011663357
0.0011663357
0.0011663357
0.0011663357
0.0011663357
0.0011663357
0.0011663357
0.0011663357
3.7286415e-06
0.00011132024
1.8782095e-05
4.7696355e-05
3.1938442e-05
8.1912497e-05
5.4730328e-05
2.4172086e-05
1.8061336e-05
2.7727878e-05
4.7622006e-05
0.00014793034
0.0011663395
0.001166334
0.0011663351
0.0011663355
0.0011663357
0.0011663357
0.0011663357
0.0011663357
0.0011663357
0.0011663357
0.0011663357
0.0011663357
0.0011663357
0.0011663357
0.0011663357
0.0011663357
0.0011663357
0.0011663357
0.0011663357
0.0011663357
0.0011663357
0.0011663357
0.0011663357
0.0011663357
0.0011663357
0.0011663357
0.0011663357
0.0011663357
0.0011663357
0.0011663357
0.0011663357
0.0011663357
0.0011663357
0.0011663357
0.0011663357
0.0011663357
0.0011663357
0.0011663357
0.0011663357
0.0011663357
0.0011663357
0.0011663357
0.0011663357
0.0011663357
0.0011663357
0.0011663357
0.0011663357
0.0011663357
0.0011663357
0.0011663357
0.0011663357
0.0011663357
0.0011663357
0.0011663357
0.0011663357
0.0011663357
0.0011663357
0.0011663357
0.0011663357
0.0011663357
0.0011663357
0.0011663357
0.0011663357
0.0011663357
0.0011663357
0.0011663357
0.0011663357
0.0011663357
2.9424126e-06
6.9253499e-05
1.5518182e-05
4.1927626e-05
3.0373558e-05
5.9433872e-05
6.2799562e-05
2.0110174e-05
1.4701972e-05
2.1884104e-05
3.6444131e-05
0.00010810088
0.00089657236
0.0011663336
0.0011663349
0.0011663355
0.0011663357
0.0011663357
0.0011663357
0.0011663357
0.0011663357
0.0011663357
0.0011663357
0.0011663357
0.0011663357
0.0011663357
0.0011663357
0.0011663357
0.0011663357
0.0011663357
0.0011663357
0.0011663357
0.0011663357
0.0011663357
0.0011663357
0.0011663357
0.0011663357
0.0011663357
0.0011663357
0.0011663357
0.0011663357
0.0011663357
0.0011663357
0.0011663357
0.0011663357
0.0011663357
0.0011663357
0.0011663357
0.0011663357
0.0011663357
0.0011663357
0.0011663357
0.0011663357
0.0011663357
0.0011663357
0.0011663357
0.0011663357
0.0011663357
0.0011663357
0.0011663357
0.0011663357
0.0011663357
0.0011663357
0.0011663357
0.0011663357
0.0011663357
0.0011663357
0.0011663357
0.0011663357
0.0011663357
0.0011663357
0.0011663357
0.0011663357
0.0011663357
0.0011663357
0.0011663357
0.0011663357
0.0011663357
0.0011663357
0.0011663357
2.387167e-06
4.6014764e-05
1.3647037e-05
3.7516545e-05
2.9837999e-05
4.5096256e-05
7.5346584e-05
1.7303224e-05
1.227781e-05
1.7782564e-05
2.8787374e-05
8.262822e-05
0.00061757765
0.0011663331
0.0011663346
0.0011663354
0.0011663357
0.0011663357
0.0011663357
0.0011663357
0.0011663357
0.0011663357
0.0011663357
0.0011663357
0.0011663357
0.0011663357
0.0011663357
0.0011663357
0.0011663357
0.0011663357
0.0011663357
0.0011663357
0.0011663357
0.0011663357
0.0011663357
0.0011663357
0.0011663357
0.0011663357
0.0011663357
0.0011663357
0.0011663357
0.0011663357
0.0011663357
0.0011663357
0.0011663357
0.0011663357
0.0011663357
0.0011663357
0.0011663357
0.0011663357
0.0011663357
0.0011663357
0.0011663357
0.0011663357
0.0011663357
0.0011663357
0.0011663357
0.0011663357
0.0011663357
0.0011663357
0.0011663357
0.0011663357
0.0011663357
0.0011663357
0.0011663357
0.0011663357
0.0011663357
0.0011663357
0.0011663357
0.0011663357
0.0011663357
0.0011663357
0.0011663357
0.0011663357
0.0011663357
0.0011663357
0.0011663357
0.0011663357
0.0011663357
0.0011663357
1.9865929e-06
3.1753753e-05
1.2653813e-05
3.4417186e-05
3.0040082e-05
3.5421451e-05
7.9414792e-05
1.5213926e-05
1.0470331e-05
1.4771518e-05
2.3298737e-05
6.4899353e-05
0.00044332217
0.0011663328
0.0011663344
0.0011663353
0.0011663357
0.0011663357
0.0011663357
0.0011663357
0.0011663357
0.0011663357
0.0011663357
0.0011663357
0.0011663357
0.0011663357
0.0011663357
0.0011663357
0.0011663357
0.0011663357
0.0011663357
0.0011663357
0.0011663357
0.0011663357
0.0011663357
0.0011663357
0.0011663357
0.0011663357
0.0011663357
0.0011663357
0.0011663357
0.0011663357
0.0011663357
0.0011663357
0.0011663357
0.0011663357
0.0011663357
0.0011663357
0.0011663357
0.0011663357
0.0011663357
0.0011663357
0.0011663357
0.0011663357
0.0011663357
0.0011663357
0.0011663357
0.0011663357
0.0011663357
0.0011663357
0.0011663357
0.0011663357
0.0011663357
0.0011663357
0.0011663357
0.0011663357
0.0011663357
0.0011663357
0.0011663357
0.0011663357
0.0011663357
0.0011663357
0.0011663357
0.0011663357
0.0011663357
0.0011663357
0.0011663357
0.0011663357
0.0011663357
0.0011663357
1.6918745e-06
2.2540556e-05
1.1623798e-05
3.2260184e-05
3.0978204e-05
2.8704693e-05
6.3045829e-05
1.3583404e-05
9.0751977e-06
1.248059e-05
1.9219414e-05
5.2081393e-05
0.00032872554
0.0011663324
0.0011663341
0.0011663352
0.0011663356
0.0011663357
0.0011663357
0.0011663357
0.0011663357
0.0011663357
0.0011663357
0.0011663357
0.0011663357
0.0011663357
0.0011663357
0.0011663357
0.0011663357
0.0011663357
0.0011663357
0.0011663357
0.0011663357
0.0011663357
0.0011663357
0.0011663357
0.0011663357
0.0011663357
0.0011663357
0.0011663357
0.0011663357
0.0011663357
0.0011663357
0.0011663357
0.0011663357
0.0011663357
0.0011663357
0.0011663357
0.0011663357
0.0011663357
0.0011663357
0.0011663357
0.0011663357
0.0011663357
0.0011663357
0.0011663357
0.0011663357
0.0011663357
0.0011663357
0.0011663357
0.0011663357
0.0011663357
0.0011663357
0.0011663357
0.0011663357
0.0011663357
0.0011663357
0.0011663357
0.0011663357
0.0011663357
0.0011663357
0.0011663357
0.0011663357
0.0011663357
0.0011663357
0.0011663357
0.0011663357
0.0011663357
0.0011663357
0.0011663358
1.4747493e-06
1.6265758e-05
1.0466058e-05
3.1109294e-05
3.2556873e-05
2.3910605e-05
4.4236013e-05
1.228082e-05
7.9698168e-06
1.0684593e-05
1.6095361e-05
4.2517029e-05
0.00025011949
0.0011663322
0.0011663337
0.0011663351
0.0011663356
0.0011663357
0.0011663357
0.0011663357
0.0011663357
0.0011663357
0.0011663357
0.0011663357
0.0011663357
0.0011663357
0.0011663357
0.0011663357
0.0011663357
0.0011663357
0.0011663357
0.0011663357
0.0011663357
0.0011663357
0.0011663357
0.0011663357
0.0011663357
0.0011663357
0.0011663357
0.0011663357
0.0011663357
0.0011663357
0.0011663357
0.0011663357
0.0011663357
0.0011663357
0.0011663357
0.0011663357
0.0011663357
0.0011663357
0.0011663357
0.0011663357
0.0011663357
0.0011663357
0.0011663357
0.0011663357
0.0011663357
0.0011663357
0.0011663357
0.0011663357
0.0011663357
0.0011663357
0.0011663357
0.0011663357
0.0011663357
0.0011663357
0.0011663357
0.0011663357
0.0011663357
0.0011663357
0.0011663357
0.0011663357
0.0011663357
0.0011663357
0.0011663357
0.0011663357
0.0011663357
0.0011663357
0.0011663357
0.0011663358
1.3155109e-06
1.1968141e-05
9.218591e-06
3.1159088e-05
3.4663116e-05
2.0430805e-05
3.164816e-05
1.1215573e-05
7.0713812e-06
9.2409138e-06
1.3638804e-05
3.518224e-05
0.00019424321
0.0011663322
0.0011663334
0.001166335
0.0011663356
0.0011663357
0.0011663357
0.0011663357
0.0011663357
0.0011663357
0.0011663357
0.0011663357
0.0011663357
0.0011663357
0.0011663357
0.0011663357
0.0011663357
0.0011663357
0.0011663357
0.0011663357
0.0011663357
0.0011663357
0.0011663357
0.0011663357
0.0011663357
0.0011663357
0.0011663357
0.0011663357
0.0011663357
0.0011663357
0.0011663357
0.0011663357
0.0011663357
0.0011663357
0.0011663357
0.0011663357
0.0011663357
0.0011663357
0.0011663357
0.0011663357
0.0011663357
0.0011663357
0.0011663357
0.0011663357
0.0011663357
0.0011663357
0.0011663357
0.0011663357
0.0011663357
0.0011663357
0.0011663357
0.0011663357
0.0011663357
0.0011663357
0.0011663357
0.0011663357
0.0011663357
0.0011663357
0.0011663357
0.0011663357
0.0011663357
0.0011663357
0.0011663357
0.0011663357
0.0011663357
0.0011663357
0.0011663357
0.0011663358
1.1930869e-06
9.2498389e-06
8.626938e-06
3.082455e-05
3.6429695e-05
1.7789012e-05
2.3560925e-05
1.0308652e-05
6.3255369e-06
8.0552156e-06
1.1664821e-05
2.9424608e-05
0.00015330687
0.0011663323
0.001166333
0.0011663348
0.0011663356
0.0011663357
0.0011663357
0.0011663357
0.0011663357
0.0011663357
0.0011663357
0.0011663357
0.0011663357
0.0011663357
0.0011663357
0.0011663357
0.0011663357
0.0011663357
0.0011663357
0.0011663357
0.0011663357
0.0011663357
0.0011663357
0.0011663357
0.0011663357
0.0011663357
0.0011663357
0.0011663357
0.0011663357
0.0011663357
0.0011663357
0.0011663357
0.0011663357
0.0011663357
0.0011663357
0.0011663357
0.0011663357
0.0011663357
0.0011663357
0.0011663357
0.0011663357
0.0011663357
0.0011663357
0.0011663357
0.0011663357
0.0011663357
0.0011663357
0.0011663357
0.0011663357
0.0011663357
0.0011663357
0.0011663357
0.0011663357
0.0011663357
0.0011663357
0.0011663357
0.0011663357
0.0011663357
0.0011663357
0.0011663357
0.0011663357
0.0011663357
0.0011663357
0.0011663357
0.0011663357
0.0011663357
0.0011663357
0.0011663358
1.1061646e-06
7.4489643e-06
8.2144211e-06
2.9607158e-05
3.7488132e-05
1.5664849e-05
1.8124867e-05
9.5236885e-06
5.6956521e-06
7.0639225e-06
1.0047731e-05
2.4810527e-05
0.00012252465
0.0010097954
0.0011663325
0.0011663346
0.0011663356
0.0011663357
0.0011663357
0.0011663357
0.0011663357
0.0011663357
0.0011663357
0.0011663357
0.0011663357
0.0011663357
0.0011663357
0.0011663357
0.0011663357
0.0011663357
0.0011663357
0.0011663357
0.0011663357
0.0011663357
0.0011663357
0.0011663357
0.0011663357
0.0011663357
0.0011663357
0.0011663357
0.0011663357
0.0011663357
0.0011663357
0.0011663357
0.0011663357
0.0011663357
0.0011663357
0.0011663357
0.0011663357
0.0011663357
0.0011663357
0.0011663357
0.0011663357
0.0011663357
0.0011663357
0.0011663357
0.0011663357
0.0011663357
0.0011663357
0.0011663357
0.0011663357
0.0011663357
0.0011663357
0.0011663357
0.0011663357
0.0011663357
0.0011663357
0.0011663357
0.0011663357
0.0011663357
0.0011663357
0.0011663357
0.0011663357
0.0011663357
0.0011663357
0.0011663357
0.0011663357
0.0011663357
0.0011663357
0.0011663358
1.0528169e-06
6.0976744e-06
7.4433561e-06
2.855504e-05
3.7156303e-05
1.3968983e-05
1.4308903e-05
8.8498358e-06
5.1580234e-06
6.2247686e-06
8.7022072e-06
2.1049283e-05
9.887628e-05
0.00077650025
0.001166332
0.0011663344
0.0011663356
0.0011663357
0.0011663357
0.0011663357
0.0011663357
0.0011663357
0.0011663357
0.0011663357
0.0011663357
0.0011663357
0.0011663357
0.0011663357
0.0011663357
0.0011663357
0.0011663357
0.0011663357
0.0011663357
0.0011663357
0.0011663357
0.0011663357
0.0011663357
0.0011663357
0.0011663357
0.0011663357
0.0011663357
0.0011663357
0.0011663357
0.0011663357
0.0011663357
0.0011663357
0.0011663357
0.0011663357
0.0011663357
0.0011663357
0.0011663357
0.0011663357
0.0011663357
0.0011663357
0.0011663357
0.0011663357
0.0011663357
0.0011663357
0.0011663357
0.0011663357
0.0011663357
0.0011663357
0.0011663357
0.0011663357
0.0011663357
0.0011663357
0.0011663357
0.0011663357
0.0011663357
0.0011663357
0.0011663357
0.0011663357
0.0011663357
0.0011663357
0.0011663357
0.0011663357
0.0011663357
0.0011663357
0.0011663357
0.0011663358
1.0188086e-06
5.0646927e-06
6.6462244e-06
2.7821913e-05
3.3850085e-05
1.2639143e-05
1.1512351e-05
8.2728776e-06
4.6955093e-06
5.5079085e-06
7.5693797e-06
1.7942665e-05
8.0399637e-05
0.00060527041
0.0011663315
0.0011663342
0.0011663355
0.0011663357
0.0011663357
0.0011663357
0.0011663357
0.0011663357
0.0011663357
0.0011663357
0.0011663357
0.0011663357
0.0011663357
0.0011663357
0.0011663357
0.0011663357
0.0011663357
0.0011663357
0.0011663357
0.0011663357
0.0011663357
0.0011663357
0.0011663357
0.0011663357
0.0011663357
0.0011663357
0.0011663357
0.0011663357
0.0011663357
0.0011663357
0.0011663357
0.0011663357
0.0011663357
0.0011663357
0.0011663357
0.0011663357
0.0011663357
0.0011663357
0.0011663357
0.0011663357
0.0011663357
0.0011663357
0.0011663357
0.0011663357
0.0011663357
0.0011663357
0.0011663357
0.0011663357
0.0011663357
0.0011663357
0.0011663357
0.0011663357
0.0011663357
0.0011663357
0.0011663357
0.0011663357
0.0011663357
0.0011663357
0.0011663357
0.0011663357
0.0011663357
0.0011663357
0.0011663357
0.0011663357
0.0011663357
0.0011663359
9.9913277e-07
4.4357841e-06
5.9528848e-06
2.6793532e-05
2.7579979e-05
1.1955316e-05
9.4075216e-06
7.7515545e-06
4.2907934e-06
4.8891315e-06
6.6071956e-06
1.53549e-05
6.5806544e-05
0.00047725239
0.0011663309
0.0011663339
0.0011663355
0.0011663357
0.0011663357
0.0011663357
0.0011663357
0.0011663357
0.0011663357
0.0011663357
0.0011663357
0.0011663357
0.0011663357
0.0011663357
0.0011663357
0.0011663357
0.0011663357
0.0011663357
0.0011663357
0.0011663357
0.0011663357
0.0011663357
0.0011663357
0.0011663357
0.0011663357
0.0011663357
0.0011663357
0.0011663357
0.0011663357
0.0011663357
0.0011663357
0.0011663357
0.0011663357
0.0011663357
0.0011663357
0.0011663357
0.0011663357
0.0011663357
0.0011663357
0.0011663357
0.0011663357
0.0011663357
0.0011663357
0.0011663357
0.0011663357
0.0011663357
0.0011663357
0.0011663357
0.0011663357
0.0011663357
0.0011663357
0.0011663357
0.0011663357
0.0011663357
0.0011663357
0.0011663357
0.0011663357
0.0011663357
0.0011663357
0.0011663357
0.0011663357
0.0011663357
0.0011663357
0.0011663357
0.0011663357
0.0011663359
9.9549493e-07
3.6992991e-06
5.8473651e-06
2.3025716e-05
2.1013001e-05
1.1277819e-05
7.8181707e-06
7.2187746e-06
3.9173901e-06
4.34204e-06
5.7805325e-06
1.3187292e-05
5.4249544e-05
0.00038080347
0.0011663303
0.0011663336
0.0011663355
0.0011663357
0.0011663357
0.0011663357
0.0011663357
0.0011663357
0.0011663357
0.0011663357
0.0011663357
0.0011663357
0.0011663357
0.0011663357
0.0011663357
0.0011663357
0.0011663357
0.0011663357
0.0011663357
0.0011663357
0.0011663357
0.0011663357
0.0011663357
0.0011663357
0.0011663357
0.0011663357
0.0011663357
0.0011663357
0.0011663357
0.0011663357
0.0011663357
0.0011663357
0.0011663357
0.0011663357
0.0011663357
0.0011663357
0.0011663357
0.0011663357
0.0011663357
0.0011663357
0.0011663357
0.0011663357
0.0011663357
0.0011663357
0.0011663357
0.0011663357
0.0011663357
0.0011663357
0.0011663357
0.0011663357
0.0011663357
0.0011663357
0.0011663357
0.0011663357
0.0011663357
0.0011663357
0.0011663357
0.0011663357
0.0011663357
0.0011663357
0.0011663357
0.0011663357
0.0011663357
0.0011663357
0.0011663357
0.0011663359
1.0045411e-06
4.4314738e-06
4.5388673e-06
2.2365638e-05
1.5716365e-05
1.0564873e-05
6.4969925e-06
6.5976875e-06
3.5561579e-06
3.8407879e-06
5.0616337e-06
1.1363966e-05
4.5141596e-05
0.0003086124
0.0011663295
0.0011663332
0.0011663354
0.0011663357
0.0011663357
0.0011663357
0.0011663357
0.0011663357
0.0011663357
0.0011663357
0.0011663357
0.0011663357
0.0011663357
0.0011663357
0.0011663357
0.0011663357
0.0011663357
0.0011663357
0.0011663357
0.0011663357
0.0011663357
0.0011663357
0.0011663357
0.0011663357
0.0011663357
0.0011663357
0.0011663357
0.0011663357
0.0011663357
0.0011663357
0.0011663357
0.0011663357
0.0011663357
0.0011663357
0.0011663357
0.0011663357
0.0011663357
0.0011663357
0.0011663357
0.0011663357
0.0011663357
0.0011663357
0.0011663357
0.0011663357
0.0011663357
0.0011663357
0.0011663357
0.0011663357
0.0011663357
0.0011663357
0.0011663357
0.0011663357
0.0011663357
0.0011663357
0.0011663357
0.0011663357
0.0011663357
0.0011663357
0.0011663357
0.0011663357
0.0011663357
0.0011663357
0.0011663357
0.0011663357
0.0011663357
0.0011663359
1.1030925e-06
3.2009542e-06
4.2091614e-06
1.8200267e-05
1.4290212e-05
8.6201936e-06
5.5180964e-06
5.9598435e-06
3.2101761e-06
3.3918756e-06
4.4406776e-06
9.8423212e-06
3.8040947e-05
0.00025528741
0.0011663287
0.0011663328
0.0011663354
0.0011663357
0.0011663357
0.0011663357
0.0011663357
0.0011663357
0.0011663357
0.0011663357
0.0011663357
0.0011663357
0.0011663357
0.0011663357
0.0011663357
0.0011663357
0.0011663357
0.0011663357
0.0011663357
0.0011663357
0.0011663357
0.0011663357
0.0011663357
0.0011663357
0.0011663357
0.0011663357
0.0011663357
0.0011663357
0.0011663357
0.0011663357
0.0011663357
0.0011663357
0.0011663357
0.0011663357
0.0011663357
0.0011663357
0.0011663357
0.0011663357
0.0011663357
0.0011663357
0.0011663357
0.0011663357
0.0011663357
0.0011663357
0.0011663357
0.0011663357
0.0011663357
0.0011663357
0.0011663357
0.0011663357
0.0011663357
0.0011663357
0.0011663357
0.0011663357
0.0011663357
0.0011663357
0.0011663357
0.0011663357
0.0011663357
0.0011663357
0.0011663357
0.0011663357
0.0011663357
0.0011663357
0.0011663357
0.001166336
1.1855938e-06
2.5296549e-06
3.1544974e-06
1.8014229e-05
1.1138581e-05
7.9915058e-06
4.9892419e-06
5.5297433e-06
2.916109e-06
3.0294216e-06
3.9282309e-06
8.6190092e-06
3.2658917e-05
0.00021676961
0.0011663279
0.0011663324
0.0011663353
0.0011663357
0.0011663357
0.0011663357
0.0011663357
0.0011663357
0.0011663357
0.0011663357
0.0011663357
0.0011663357
0.0011663357
0.0011663357
0.0011663357
0.0011663357
0.0011663357
0.0011663357
0.0011663357
0.0011663357
0.0011663357
0.0011663357
0.0011663357
0.0011663357
0.0011663357
0.0011663357
0.0011663357
0.0011663357
0.0011663357
0.0011663357
0.0011663357
0.0011663357
0.0011663357
0.0011663357
0.0011663357
0.0011663357
0.0011663357
0.0011663357
0.0011663357
0.0011663357
0.0011663357
0.0011663357
0.0011663357
0.0011663357
0.0011663357
0.0011663357
0.0011663357
0.0011663357
0.0011663357
0.0011663357
0.0011663357
0.0011663357
0.0011663357
0.0011663357
0.0011663357
0.0011663357
0.0011663357
0.0011663357
0.0011663357
0.0011663357
0.0011663357
0.0011663357
0.0011663357
0.0011663357
0.0011663357
0.001166336
1.2507716e-06
3.3326817e-06
2.8517008e-06
1.8655482e-05
8.2217666e-06
7.6005259e-06
4.4325404e-06
5.1194074e-06
2.6767846e-06
2.745326e-06
3.5295734e-06
7.698838e-06
2.88864e-05
0.00019129783
0.001166327
0.0011663321
0.0011663353
0.0011663357
0.0011663357
0.0011663357
0.0011663357
0.0011663357
0.0011663357
0.0011663357
0.0011663357
0.0011663357
0.0011663357
0.0011663357
0.0011663357
0.0011663357
0.0011663357
0.0011663357
0.0011663357
0.0011663357
0.0011663357
0.0011663357
0.0011663357
0.0011663357
0.0011663357
0.0011663357
0.0011663357
0.0011663357
0.0011663357
0.0011663357
0.0011663357
0.0011663357
0.0011663357
0.0011663357
0.0011663357
0.0011663357
0.0011663357
0.0011663357
0.0011663357
0.0011663357
0.0011663357
0.0011663357
0.0011663357
0.0011663357
0.0011663357
0.0011663357
0.0011663357
0.0011663357
0.0011663357
0.0011663357
0.0011663357
0.0011663357
0.0011663357
0.0011663357
0.0011663357
0.0011663357
0.0011663357
0.0011663357
0.0011663357
0.0011663357
0.0011663357
0.0011663357
0.0011663357
0.0011663357
0.0011663357
0.001166336
1.3647415e-06
2.77e-06
3.0311103e-06
1.5102443e-05
6.6840335e-06
6.963954e-06
4.0615468e-06
6.8492231e-06
2.4475106e-06
2.5222007e-06
3.2356296e-06
7.082709e-06
2.6760881e-05
0.00017853031
0.0011663262
0.0011663318
0.0011663353
0.0011663357
0.0011663357
0.0011663357
0.0011663357
0.0011663357
0.0011663357
0.0011663357
0.0011663357
0.0011663357
0.0011663357
0.0011663357
0.0011663357
0.0011663357
0.0011663357
0.0011663357
0.0011663357
0.0011663357
0.0011663357
0.0011663357
0.0011663357
0.0011663357
0.0011663357
0.0011663357
0.0011663357
0.0011663357
0.0011663357
0.0011663357
0.0011663357
0.0011663357
0.0011663357
0.0011663357
0.0011663357
0.0011663357
0.0011663357
0.0011663357
0.0011663357
0.0011663357
0.0011663357
0.0011663357
0.0011663357
0.0011663357
0.0011663357
0.0011663357
0.0011663357
0.0011663357
0.0011663357
0.0011663357
0.0011663357
0.0011663357
0.0011663357
0.0011663357
0.0011663357
0.0011663357
0.0011663357
0.0011663357
0.0011663357
0.0011663357
0.0011663357
0.0011663357
0.0011663357
0.0011663357
0.0011663357
0.001166336
1.3167788e-06
2.5979086e-06
3.1395941e-06
1.0838982e-05
5.5875638e-06
6.2035652e-06
4.7641414e-06
9.2935654e-06
2.2282075e-06
2.3564985e-06
3.0450804e-06
6.7699401e-06
2.6383861e-05
0.00018029801
0.0011663256
0.0011663317
0.0011663353
0.0011663357
0.0011663357
0.0011663357
0.0011663357
0.0011663357
0.0011663357
0.0011663357
0.0011663357
0.0011663357
0.0011663357
0.0011663357
0.0011663357
0.0011663357
0.0011663357
0.0011663357
0.0011663357
0.0011663357
0.0011663357
0.0011663357
0.0011663357
0.0011663357
0.0011663357
0.0011663357
0.0011663357
0.0011663357
0.0011663357
0.0011663357
0.0011663357
0.0011663357
0.0011663357
0.0011663357
0.0011663357
0.0011663357
0.0011663357
0.0011663357
0.0011663357
0.0011663357
0.0011663357
0.0011663357
0.0011663357
0.0011663357
0.0011663357
0.0011663357
0.0011663357
0.0011663357
0.0011663357
0.0011663357
0.0011663357
0.0011663357
0.0011663357
0.0011663357
0.0011663357
0.0011663357
0.0011663357
0.0011663357
0.0011663357
0.0011663357
0.0011663357
0.0011663357
0.0011663357
0.0011663357
0.0011663357
0.0011663361
1.2347307e-06
3.4857645e-06
3.6950957e-06
8.1106836e-06
5.4950391e-06
5.5817905e-06
4.8296239e-06
5.3860028e-06
2.0240512e-06
2.2483109e-06
2.9522822e-06
6.7647245e-06
2.8009026e-05
0.00020033655
0.0011663253
0.0011663319
0.0011663353
0.0011663357
0.0011663357
0.0011663357
0.0011663357
0.0011663357
0.0011663357
0.0011663357
0.0011663357
0.0011663357
0.0011663357
0.0011663357
0.0011663357
0.0011663357
0.0011663357
0.0011663357
0.0011663357
0.0011663357
0.0011663357
0.0011663357
0.0011663357
0.0011663357
0.0011663357
0.0011663357
0.0011663357
0.0011663357
0.0011663357
0.0011663357
0.0011663357
0.0011663357
0.0011663357
0.0011663357
0.0011663357
0.0011663357
0.0011663357
0.0011663357
0.0011663357
0.0011663357
0.0011663357
0.0011663357
0.0011663357
0.0011663357
0.0011663357
0.0011663357
0.0011663357
0.0011663357
0.0011663357
0.0011663357
0.0011663357
0.0011663357
0.0011663357
0.0011663357
0.0011663357
0.0011663357
0.0011663357
0.0011663357
0.0011663357
0.0011663357
0.0011663357
0.0011663357
0.0011663357
0.0011663357
0.0011663357
0.0011663361
1.1640401e-06
5.360806e-06
3.5048421e-06
6.9494747e-06
5.1969285e-06
5.2030886e-06
4.3872059e-06
3.6705314e-06
1.8530206e-06
2.1849511e-06
2.9594051e-06
7.0913534e-06
3.2240673e-05
0.0002490506
0.0011663255
0.0011663323
0.0011663354
0.0011663357
0.0011663357
0.0011663357
0.0011663357
0.0011663357
0.0011663357
0.0011663357
0.0011663357
0.0011663357
0.0011663357
0.0011663357
0.0011663357
0.0011663357
0.0011663357
0.0011663357
0.0011663357
0.0011663357
0.0011663357
0.0011663357
0.0011663357
0.0011663357
0.0011663357
0.0011663357
0.0011663357
0.0011663357
0.0011663357
0.0011663357
0.0011663357
0.0011663357
0.0011663357
0.0011663357
0.0011663357
0.0011663357
0.0011663357
0.0011663357
0.0011663357
0.0011663357
0.0011663357
0.0011663357
0.0011663357
0.0011663357
0.0011663357
0.0011663357
0.0011663357
0.0011663357
0.0011663357
0.0011663357
0.0011663357
0.0011663357
0.0011663357
0.0011663357
0.0011663357
0.0011663357
0.0011663357
0.0011663357
0.0011663357
0.0011663357
0.0011663357
0.0011663357
0.0011663357
0.0011663357
0.0011663357
0.0011663361
1.1001831e-06
4.3243695e-06
1.5328896e-06
4.5637951e-06
5.0217155e-06
4.9073271e-06
4.7971246e-06
2.5267021e-06
1.7268405e-06
2.1555874e-06
3.0521666e-06
7.7073205e-06
3.9349264e-05
0.00034021862
0.0011663261
0.0011663328
0.0011663355
0.0011663357
0.0011663357
0.0011663357
0.0011663357
0.0011663357
0.0011663357
0.0011663357
0.0011663357
0.0011663357
0.0011663357
0.0011663357
0.0011663357
0.0011663357
0.0011663357
0.0011663357
0.0011663357
0.0011663357
0.0011663357
0.0011663357
0.0011663357
0.0011663357
0.0011663357
0.0011663357
0.0011663357
0.0011663357
0.0011663357
0.0011663357
0.0011663357
0.0011663357
0.0011663357
0.0011663357
0.0011663357
0.0011663357
0.0011663357
0.0011663357
0.0011663357
0.0011663357
0.0011663357
0.0011663357
0.0011663357
0.0011663357
0.0011663357
0.0011663357
0.0011663357
0.0011663357
0.0011663357
0.0011663357
0.0011663357
0.0011663357
0.0011663357
0.0011663357
0.0011663357
0.0011663357
0.0011663357
0.0011663357
0.0011663357
0.0011663357
0.0011663357
0.0011663357
0.0011663357
0.0011663357
0.0011663357
0.0011663361
9.7060254e-07
2.0573515e-06
1.2042149e-06
3.2238323e-06
4.0781111e-06
4.6171554e-06
5.373237e-06
2.4971861e-06
1.6502682e-06
2.1616338e-06
3.1797776e-06
8.4062773e-06
4.7845063e-05
0.00047259814
0.0011663269
0.0011663333
0.0011663356
0.0011663357
0.0011663357
0.0011663357
0.0011663357
0.0011663357
0.0011663357
0.0011663357
0.0011663357
0.0011663357
0.0011663357
0.0011663357
0.0011663357
0.0011663357
0.0011663357
0.0011663357
0.0011663357
0.0011663357
0.0011663357
0.0011663357
0.0011663357
0.0011663357
0.0011663357
0.0011663357
0.0011663357
0.0011663357
0.0011663357
0.0011663357
0.0011663357
0.0011663357
0.0011663357
0.0011663357
0.0011663357
0.0011663357
0.0011663357
0.0011663357
0.0011663357