/*--------------------------------*- C++ -*----------------------------------*\
| =========                 |                                                 |
| \\      /  F ield         | OpenFOAM: The Open Source CFD Toolbox           |
|  \\    /   O peration     | Version:  2406                                  |
|   \\  /    A nd           | Website:  www.openfoam.com                      |
|    \\/     M anipulation  |                                                 |
\*---------------------------------------------------------------------------*/
FoamFile
{
    version     2.0;
    format      ascii;
    arch        "LSB;label=32;scalar=64";
    class       volScalarField;
    location    "6e-05";
    object      k;
}
// * * * * * * * * * * * * * * * * * * * * * * * * * * * * * * * * * * * * * //

dimensions      [0 2 -2 0 0 0 0];

internalField   nonuniform List<scalar> 
16000
(
0.010547447
0.0099862712
0.010001315
0.010001408
0.010000585
0.010000137
0.0099996411
0.0099994492
0.0099994429
0.0099994547
0.0099994552
0.0099994642
0.0099994615
0.0099994605
0.00999946
0.00999946
0.00999946
0.00999946
0.00999946
0.00999946
0.00999946
0.00999946
0.00999946
0.00999946
0.00999946
0.00999946
0.00999946
0.00999946
0.00999946
0.00999946
0.00999946
0.00999946
0.00999946
0.00999946
0.00999946
0.00999946
0.00999946
0.00999946
0.00999946
0.00999946
0.00999946
0.00999946
0.00999946
0.00999946
0.00999946
0.00999946
0.00999946
0.00999946
0.00999946
0.00999946
0.00999946
0.00999946
0.00999946
0.00999946
0.00999946
0.00999946
0.00999946
0.00999946
0.00999946
0.00999946
0.00999946
0.00999946
0.00999946
0.00999946
0.00999946
0.00999946
0.00999946
0.00999946
0.00999946
0.00999946
0.00999946
0.00999946
0.00999946
0.00999946
0.00999946
0.00999946
0.00999946
0.00999946
0.00999946
0.0099994601
0.010555961
0.0099915305
0.0099982301
0.010002819
0.0099998362
0.0099994357
0.0099987797
0.0099989925
0.0099992475
0.0099994209
0.0099994248
0.0099994576
0.0099994612
0.0099994616
0.0099994603
0.00999946
0.00999946
0.00999946
0.00999946
0.00999946
0.00999946
0.00999946
0.00999946
0.00999946
0.00999946
0.00999946
0.00999946
0.00999946
0.00999946
0.00999946
0.00999946
0.00999946
0.00999946
0.00999946
0.00999946
0.00999946
0.00999946
0.00999946
0.00999946
0.00999946
0.00999946
0.00999946
0.00999946
0.00999946
0.00999946
0.00999946
0.00999946
0.00999946
0.00999946
0.00999946
0.00999946
0.00999946
0.00999946
0.00999946
0.00999946
0.00999946
0.00999946
0.00999946
0.00999946
0.00999946
0.00999946
0.00999946
0.00999946
0.00999946
0.00999946
0.00999946
0.00999946
0.00999946
0.00999946
0.00999946
0.00999946
0.00999946
0.00999946
0.00999946
0.00999946
0.00999946
0.00999946
0.00999946
0.00999946
0.0099994601
0.010564066
0.0099995027
0.0099904662
0.010005114
0.0099966992
0.0099992217
0.009996905
0.0099979104
0.0099985748
0.0099993499
0.0099993892
0.0099994613
0.0099994596
0.0099994627
0.0099994607
0.0099994601
0.00999946
0.00999946
0.00999946
0.00999946
0.00999946
0.00999946
0.00999946
0.00999946
0.00999946
0.00999946
0.00999946
0.00999946
0.00999946
0.00999946
0.00999946
0.00999946
0.00999946
0.00999946
0.00999946
0.00999946
0.00999946
0.00999946
0.00999946
0.00999946
0.00999946
0.00999946
0.00999946
0.00999946
0.00999946
0.00999946
0.00999946
0.00999946
0.00999946
0.00999946
0.00999946
0.00999946
0.00999946
0.00999946
0.00999946
0.00999946
0.00999946
0.00999946
0.00999946
0.00999946
0.00999946
0.00999946
0.00999946
0.00999946
0.00999946
0.00999946
0.00999946
0.00999946
0.00999946
0.00999946
0.00999946
0.00999946
0.00999946
0.00999946
0.00999946
0.00999946
0.00999946
0.00999946
0.00999946
0.0099994602
0.010571266
0.010008231
0.0099830744
0.010006041
0.0099925363
0.0099993238
0.0099947576
0.0099964327
0.00999754
0.0099990955
0.009999357
0.0099994673
0.0099994574
0.009999464
0.0099994613
0.0099994602
0.00999946
0.00999946
0.00999946
0.00999946
0.00999946
0.00999946
0.00999946
0.00999946
0.00999946
0.00999946
0.00999946
0.00999946
0.00999946
0.00999946
0.00999946
0.00999946
0.00999946
0.00999946
0.00999946
0.00999946
0.00999946
0.00999946
0.00999946
0.00999946
0.00999946
0.00999946
0.00999946
0.00999946
0.00999946
0.00999946
0.00999946
0.00999946
0.00999946
0.00999946
0.00999946
0.00999946
0.00999946
0.00999946
0.00999946
0.00999946
0.00999946
0.00999946
0.00999946
0.00999946
0.00999946
0.00999946
0.00999946
0.00999946
0.00999946
0.00999946
0.00999946
0.00999946
0.00999946
0.00999946
0.00999946
0.00999946
0.00999946
0.00999946
0.00999946
0.00999946
0.00999946
0.00999946
0.00999946
0.0099994603
0.010578574
0.010016681
0.0099752303
0.010006946
0.0099886218
0.0099988531
0.0099923249
0.0099947722
0.0099962628
0.0099986316
0.0099993
0.009999474
0.0099994542
0.0099994655
0.0099994619
0.0099994603
0.00999946
0.00999946
0.00999946
0.00999946
0.00999946
0.00999946
0.00999946
0.00999946
0.00999946
0.00999946
0.00999946
0.00999946
0.00999946
0.00999946
0.00999946
0.00999946
0.00999946
0.00999946
0.00999946
0.00999946
0.00999946
0.00999946
0.00999946
0.00999946
0.00999946
0.00999946
0.00999946
0.00999946
0.00999946
0.00999946
0.00999946
0.00999946
0.00999946
0.00999946
0.00999946
0.00999946
0.00999946
0.00999946
0.00999946
0.00999946
0.00999946
0.00999946
0.00999946
0.00999946
0.00999946
0.00999946
0.00999946
0.00999946
0.00999946
0.00999946
0.00999946
0.00999946
0.00999946
0.00999946
0.00999946
0.00999946
0.00999946
0.00999946
0.00999946
0.00999946
0.00999946
0.00999946
0.00999946
0.0099994604
0.010583526
0.010027095
0.0099664352
0.010007475
0.0099865811
0.0099966176
0.0099897156
0.0099931328
0.0099947789
0.009998002
0.0099991514
0.0099994815
0.0099994507
0.0099994671
0.0099994626
0.0099994605
0.00999946
0.00999946
0.00999946
0.00999946
0.00999946
0.00999946
0.00999946
0.00999946
0.00999946
0.00999946
0.00999946
0.00999946
0.00999946
0.00999946
0.00999946
0.00999946
0.00999946
0.00999946
0.00999946
0.00999946
0.00999946
0.00999946
0.00999946
0.00999946
0.00999946
0.00999946
0.00999946
0.00999946
0.00999946
0.00999946
0.00999946
0.00999946
0.00999946
0.00999946
0.00999946
0.00999946
0.00999946
0.00999946
0.00999946
0.00999946
0.00999946
0.00999946
0.00999946
0.00999946
0.00999946
0.00999946
0.00999946
0.00999946
0.00999946
0.00999946
0.00999946
0.00999946
0.00999946
0.00999946
0.00999946
0.00999946
0.00999946
0.00999946
0.00999946
0.00999946
0.00999946
0.00999946
0.00999946
0.0099994605
0.010585926
0.0100398
0.0099562131
0.010008087
0.0099846603
0.0099941382
0.0099869252
0.0099914721
0.0099931042
0.0099972223
0.0099989154
0.0099994899
0.0099994481
0.0099994688
0.0099994635
0.0099994607
0.00999946
0.00999946
0.00999946
0.00999946
0.00999946
0.00999946
0.00999946
0.00999946
0.00999946
0.00999946
0.00999946
0.00999946
0.00999946
0.00999946
0.00999946
0.00999946
0.00999946
0.00999946
0.00999946
0.00999946
0.00999946
0.00999946
0.00999946
0.00999946
0.00999946
0.00999946
0.00999946
0.00999946
0.00999946
0.00999946
0.00999946
0.00999946
0.00999946
0.00999946
0.00999946
0.00999946
0.00999946
0.00999946
0.00999946
0.00999946
0.00999946
0.00999946
0.00999946
0.00999946
0.00999946
0.00999946
0.00999946
0.00999946
0.00999946
0.00999946
0.00999946
0.00999946
0.00999946
0.00999946
0.00999946
0.00999946
0.00999946
0.00999946
0.00999946
0.00999946
0.00999946
0.00999946
0.00999946
0.0099994606
0.010585581
0.010055296
0.0099440988
0.010009193
0.0099825078
0.0099920872
0.0099836383
0.009989693
0.0099912434
0.0099963018
0.0099985976
0.0099994982
0.0099994448
0.0099994705
0.0099994646
0.009999461
0.00999946
0.00999946
0.00999946
0.00999946
0.00999946
0.00999946
0.00999946
0.00999946
0.00999946
0.00999946
0.00999946
0.00999946
0.00999946
0.00999946
0.00999946
0.00999946
0.00999946
0.00999946
0.00999946
0.00999946
0.00999946
0.00999946
0.00999946
0.00999946
0.00999946
0.00999946
0.00999946
0.00999946
0.00999946
0.00999946
0.00999946
0.00999946
0.00999946
0.00999946
0.00999946
0.00999946
0.00999946
0.00999946
0.00999946
0.00999946
0.00999946
0.00999946
0.00999946
0.00999946
0.00999946
0.00999946
0.00999946
0.00999946
0.00999946
0.00999946
0.00999946
0.00999946
0.00999946
0.00999946
0.00999946
0.00999946
0.00999946
0.00999946
0.00999946
0.00999946
0.00999946
0.00999946
0.00999946
0.0099994607
0.010582461
0.010074051
0.0099297322
0.010010876
0.0099802553
0.0099898866
0.00998028
0.0099877961
0.0099891981
0.0099952433
0.0099982003
0.0099994819
0.0099994404
0.0099994722
0.0099994657
0.0099994614
0.00999946
0.00999946
0.00999946
0.00999946
0.00999946
0.00999946
0.00999946
0.00999946
0.00999946
0.00999946
0.00999946
0.00999946
0.00999946
0.00999946
0.00999946
0.00999946
0.00999946
0.00999946
0.00999946
0.00999946
0.00999946
0.00999946
0.00999946
0.00999946
0.00999946
0.00999946
0.00999946
0.00999946
0.00999946
0.00999946
0.00999946
0.00999946
0.00999946
0.00999946
0.00999946
0.00999946
0.00999946
0.00999946
0.00999946
0.00999946
0.00999946
0.00999946
0.00999946
0.00999946
0.00999946
0.00999946
0.00999946
0.00999946
0.00999946
0.00999946
0.00999946
0.00999946
0.00999946
0.00999946
0.00999946
0.00999946
0.00999946
0.00999946
0.00999946
0.00999946
0.00999946
0.00999946
0.00999946
0.0099994608
0.01057613
0.010097045
0.0099124859
0.010013283
0.0099778675
0.0099875526
0.0099769217
0.0099856603
0.0099869661
0.009994046
0.0099977233
0.0099994287
0.0099994349
0.0099994738
0.009999467
0.0099994618
0.0099994601
0.00999946
0.00999946
0.00999946
0.00999946
0.00999946
0.00999946
0.00999946
0.00999946
0.00999946
0.00999946
0.00999946
0.00999946
0.00999946
0.00999946
0.00999946
0.00999946
0.00999946
0.00999946
0.00999946
0.00999946
0.00999946
0.00999946
0.00999946
0.00999946
0.00999946
0.00999946
0.00999946
0.00999946
0.00999946
0.00999946
0.00999946
0.00999946
0.00999946
0.00999946
0.00999946
0.00999946
0.00999946
0.00999946
0.00999946
0.00999946
0.00999946
0.00999946
0.00999946
0.00999946
0.00999946
0.00999946
0.00999946
0.00999946
0.00999946
0.00999946
0.00999946
0.00999946
0.00999946
0.00999946
0.00999946
0.00999946
0.00999946
0.00999946
0.00999946
0.00999946
0.00999946
0.00999946
0.0099994609
0.010565213
0.010126504
0.0098914286
0.010016669
0.0099751992
0.0099851718
0.0099735609
0.009983238
0.0099845395
0.0099927064
0.0099971642
0.0099993401
0.0099994284
0.0099994755
0.0099994684
0.0099994624
0.0099994601
0.00999946
0.00999946
0.00999946
0.00999946
0.00999946
0.00999946
0.00999946
0.00999946
0.00999946
0.00999946
0.00999946
0.00999946
0.00999946
0.00999946
0.00999946
0.00999946
0.00999946
0.00999946
0.00999946
0.00999946
0.00999946
0.00999946
0.00999946
0.00999946
0.00999946
0.00999946
0.00999946
0.00999946
0.00999946
0.00999946
0.00999946
0.00999946
0.00999946
0.00999946
0.00999946
0.00999946
0.00999946
0.00999946
0.00999946
0.00999946
0.00999946
0.00999946
0.00999946
0.00999946
0.00999946
0.00999946
0.00999946
0.00999946
0.00999946
0.00999946
0.00999946
0.00999946
0.00999946
0.00999946
0.00999946
0.00999946
0.00999946
0.00999946
0.00999946
0.00999946
0.00999946
0.00999946
0.009999461
0.010548737
0.010163968
0.009865858
0.010021174
0.0099721086
0.0099827811
0.0099700734
0.0099805757
0.0099819044
0.0099912137
0.0099965178
0.0099992152
0.0099994207
0.0099994775
0.00999947
0.009999463
0.0099994602
0.00999946
0.00999946
0.00999946
0.00999946
0.00999946
0.00999946
0.00999946
0.00999946
0.00999946
0.00999946
0.00999946
0.00999946
0.00999946
0.00999946
0.00999946
0.00999946
0.00999946
0.00999946
0.00999946
0.00999946
0.00999946
0.00999946
0.00999946
0.00999946
0.00999946
0.00999946
0.00999946
0.00999946
0.00999946
0.00999946
0.00999946
0.00999946
0.00999946
0.00999946
0.00999946
0.00999946
0.00999946
0.00999946
0.00999946
0.00999946
0.00999946
0.00999946
0.00999946
0.00999946
0.00999946
0.00999946
0.00999946
0.00999946
0.00999946
0.00999946
0.00999946
0.00999946
0.00999946
0.00999946
0.00999946
0.00999946
0.00999946
0.00999946
0.00999946
0.00999946
0.00999946
0.00999946
0.0099994611
0.010528581
0.01020697
0.0098365709
0.010026653
0.0099687402
0.0099802698
0.0099664401
0.0099776589
0.0099790461
0.0099895528
0.0099957767
0.0099990521
0.0099994119
0.0099994801
0.0099994717
0.0099994637
0.0099994602
0.00999946
0.00999946
0.00999946
0.00999946
0.00999946
0.00999946
0.00999946
0.00999946
0.00999946
0.00999946
0.00999946
0.00999946
0.00999946
0.00999946
0.00999946
0.00999946
0.00999946
0.00999946
0.00999946
0.00999946
0.00999946
0.00999946
0.00999946
0.00999946
0.00999946
0.00999946
0.00999946
0.00999946
0.00999946
0.00999946
0.00999946
0.00999946
0.00999946
0.00999946
0.00999946
0.00999946
0.00999946
0.00999946
0.00999946
0.00999946
0.00999946
0.00999946
0.00999946
0.00999946
0.00999946
0.00999946
0.00999946
0.00999946
0.00999946
0.00999946
0.00999946
0.00999946
0.00999946
0.00999946
0.00999946
0.00999946
0.00999946
0.00999946
0.00999946
0.00999946
0.00999946
0.00999946
0.0099994613
0.010506539
0.010253775
0.0098038896
0.010033042
0.0099651576
0.0099776055
0.0099626352
0.0099744644
0.0099759468
0.0099877022
0.0099949292
0.0099988472
0.009999402
0.0099994838
0.0099994736
0.0099994645
0.0099994603
0.00999946
0.00999946
0.00999946
0.00999946
0.00999946
0.00999946
0.00999946
0.00999946
0.00999946
0.00999946
0.00999946
0.00999946
0.00999946
0.00999946
0.00999946
0.00999946
0.00999946
0.00999946
0.00999946
0.00999946
0.00999946
0.00999946
0.00999946
0.00999946
0.00999946
0.00999946
0.00999946
0.00999946
0.00999946
0.00999946
0.00999946
0.00999946
0.00999946
0.00999946
0.00999946
0.00999946
0.00999946
0.00999946
0.00999946
0.00999946
0.00999946
0.00999946
0.00999946
0.00999946
0.00999946
0.00999946
0.00999946
0.00999946
0.00999946
0.00999946
0.00999946
0.00999946
0.00999946
0.00999946
0.00999946
0.00999946
0.00999946
0.00999946
0.00999946
0.00999946
0.00999946
0.00999946
0.0099994614
0.010481197
0.010307057
0.0097664516
0.010040744
0.0099611325
0.0099748626
0.0099586184
0.0099709767
0.0099725967
0.0099856358
0.0099939607
0.0099985956
0.009999391
0.0099994879
0.0099994756
0.0099994655
0.0099994604
0.00999946
0.00999946
0.00999946
0.00999946
0.00999946
0.00999946
0.00999946
0.00999946
0.00999946
0.00999946
0.00999946
0.00999946
0.00999946
0.00999946
0.00999946
0.00999946
0.00999946
0.00999946
0.00999946
0.00999946
0.00999946
0.00999946
0.00999946
0.00999946
0.00999946
0.00999946
0.00999946
0.00999946
0.00999946
0.00999946
0.00999946
0.00999946
0.00999946
0.00999946
0.00999946
0.00999946
0.00999946
0.00999946
0.00999946
0.00999946
0.00999946
0.00999946
0.00999946
0.00999946
0.00999946
0.00999946
0.00999946
0.00999946
0.00999946
0.00999946
0.00999946
0.00999946
0.00999946
0.00999946
0.00999946
0.00999946
0.00999946
0.00999946
0.00999946
0.00999946
0.00999946
0.00999946
0.0099994616
0.010451648
0.010367089
0.0097236385
0.010050118
0.0099564616
0.0099721135
0.0099543561
0.0099671721
0.0099690039
0.0099833256
0.009992854
0.0099982909
0.0099993779
0.0099994923
0.0099994779
0.0099994666
0.0099994605
0.00999946
0.00999946
0.00999946
0.00999946
0.00999946
0.00999946
0.00999946
0.00999946
0.00999946
0.00999946
0.00999946
0.00999946
0.00999946
0.00999946
0.00999946
0.00999946
0.00999946
0.00999946
0.00999946
0.00999946
0.00999946
0.00999946
0.00999946
0.00999946
0.00999946
0.00999946
0.00999946
0.00999946
0.00999946
0.00999946
0.00999946
0.00999946
0.00999946
0.00999946
0.00999946
0.00999946
0.00999946
0.00999946
0.00999946
0.00999946
0.00999946
0.00999946
0.00999946
0.00999946
0.00999946
0.00999946
0.00999946
0.00999946
0.00999946
0.00999946
0.00999946
0.00999946
0.00999946
0.00999946
0.00999946
0.00999946
0.00999946
0.00999946
0.00999946
0.00999946
0.00999946
0.00999946
0.0099994617
0.010419161
0.01043183
0.0096758764
0.01006127
0.0099508865
0.0099693426
0.0099497986
0.0099630335
0.009965128
0.0099807431
0.0099915918
0.0099979266
0.0099993507
0.0099994972
0.0099994803
0.0099994678
0.0099994607
0.00999946
0.00999946
0.00999946
0.00999946
0.00999946
0.00999946
0.00999946
0.00999946
0.00999946
0.00999946
0.00999946
0.00999946
0.00999946
0.00999946
0.00999946
0.00999946
0.00999946
0.00999946
0.00999946
0.00999946
0.00999946
0.00999946
0.00999946
0.00999946
0.00999946
0.00999946
0.00999946
0.00999946
0.00999946
0.00999946
0.00999946
0.00999946
0.00999946
0.00999946
0.00999946
0.00999946
0.00999946
0.00999946
0.00999946
0.00999946
0.00999946
0.00999946
0.00999946
0.00999946
0.00999946
0.00999946
0.00999946
0.00999946
0.00999946
0.00999946
0.00999946
0.00999946
0.00999946
0.00999946
0.00999946
0.00999946
0.00999946
0.00999946
0.00999946
0.00999946
0.00999946
0.00999946
0.0099994619
0.010381493
0.010500748
0.009623274
0.010074506
0.0099441553
0.0099663335
0.0099447789
0.0099583978
0.0099608482
0.0099778459
0.0099901592
0.0099974984
0.0099993049
0.0099995025
0.009999483
0.0099994693
0.0099994608
0.00999946
0.00999946
0.00999946
0.00999946
0.00999946
0.00999946
0.00999946
0.00999946
0.00999946
0.00999946
0.00999946
0.00999946
0.00999946
0.00999946
0.00999946
0.00999946
0.00999946
0.00999946
0.00999946
0.00999946
0.00999946
0.00999946
0.00999946
0.00999946
0.00999946
0.00999946
0.00999946
0.00999946
0.00999946
0.00999946
0.00999946
0.00999946
0.00999946
0.00999946
0.00999946
0.00999946
0.00999946
0.00999946
0.00999946
0.00999946
0.00999946
0.00999946
0.00999946
0.00999946
0.00999946
0.00999946
0.00999946
0.00999946
0.00999946
0.00999946
0.00999946
0.00999946
0.00999946
0.00999946
0.00999946
0.00999946
0.00999946
0.00999946
0.00999946
0.00999946
0.00999946
0.00999946
0.0099994621
0.010334126
0.010577413
0.0095642276
0.010088376
0.0099380372
0.0099620671
0.0099393004
0.0099527071
0.0099560687
0.0099745681
0.0099885455
0.0099970059
0.0099992405
0.0099995084
0.0099994859
0.0099994709
0.0099994611
0.00999946
0.00999946
0.00999946
0.00999946
0.00999946
0.00999946
0.00999946
0.00999946
0.00999946
0.00999946
0.00999946
0.00999946
0.00999946
0.00999946
0.00999946
0.00999946
0.00999946
0.00999946
0.00999946
0.00999946
0.00999946
0.00999946
0.00999946
0.00999946
0.00999946
0.00999946
0.00999946
0.00999946
0.00999946
0.00999946
0.00999946
0.00999946
0.00999946
0.00999946
0.00999946
0.00999946
0.00999946
0.00999946
0.00999946
0.00999946
0.00999946
0.00999946
0.00999946
0.00999946
0.00999946
0.00999946
0.00999946
0.00999946
0.00999946
0.00999946
0.00999946
0.00999946
0.00999946
0.00999946
0.00999946
0.00999946
0.00999946
0.00999946
0.00999946
0.00999946
0.00999946
0.00999946
0.0099994623
0.010287857
0.010671733
0.0094869585
0.010109682
0.0099323422
0.0099563198
0.009933173
0.0099458012
0.0099507337
0.0099709137
0.0099867613
0.0099964574
0.00999916
0.009999515
0.0099994891
0.0099994726
0.0099994613
0.0099994599
0.00999946
0.00999946
0.00999946
0.00999946
0.00999946
0.00999946
0.00999946
0.00999946
0.00999946
0.00999946
0.00999946
0.00999946
0.00999946
0.00999946
0.00999946
0.00999946
0.00999946
0.00999946
0.00999946
0.00999946
0.00999946
0.00999946
0.00999946
0.00999946
0.00999946
0.00999946
0.00999946
0.00999946
0.00999946
0.00999946
0.00999946
0.00999946
0.00999946
0.00999946
0.00999946
0.00999946
0.00999946
0.00999946
0.00999946
0.00999946
0.00999946
0.00999946
0.00999946
0.00999946
0.00999946
0.00999946
0.00999946
0.00999946
0.00999946
0.00999946
0.00999946
0.00999946
0.00999946
0.00999946
0.00999946
0.00999946
0.00999946
0.00999946
0.00999946
0.00999946
0.00999946
0.0099994625
0.010268878
0.010790581
0.0093823189
0.010141552
0.0099183338
0.0099523845
0.0099261611
0.0099393044
0.0099450295
0.0099670964
0.0099848822
0.0099958816
0.0099990691
0.0099995225
0.0099994925
0.0099994744
0.0099994615
0.0099994599
0.0099994599
0.00999946
0.00999946
0.00999946
0.00999946
0.00999946
0.00999946
0.00999946
0.00999946
0.00999946
0.00999946
0.00999946
0.00999946
0.00999946
0.00999946
0.00999946
0.00999946
0.00999946
0.00999946
0.00999946
0.00999946
0.00999946
0.00999946
0.00999946
0.00999946
0.00999946
0.00999946
0.00999946
0.00999946
0.00999946
0.00999946
0.00999946
0.00999946
0.00999946
0.00999946
0.00999946
0.00999946
0.00999946
0.00999946
0.00999946
0.00999946
0.00999946
0.00999946
0.00999946
0.00999946
0.00999946
0.00999946
0.00999946
0.00999946
0.00999946
0.00999946
0.00999946
0.00999946
0.00999946
0.00999946
0.00999946
0.00999946
0.00999946
0.00999946
0.00999946
0.00999946
0.0099994628
0.010239079
0.010890404
0.0092929895
0.010170112
0.0099035087
0.0099500486
0.0099190177
0.0099340049
0.009939306
0.009963441
0.0099831017
0.0099953504
0.0099989837
0.0099995306
0.0099994959
0.0099994759
0.0099994616
0.0099994599
0.0099994599
0.00999946
0.00999946
0.00999946
0.00999946
0.00999946
0.00999946
0.00999946
0.00999946
0.00999946
0.00999946
0.00999946
0.00999946
0.00999946
0.00999946
0.00999946
0.00999946
0.00999946
0.00999946
0.00999946
0.00999946
0.00999946
0.00999946
0.00999946
0.00999946
0.00999946
0.00999946
0.00999946
0.00999946
0.00999946
0.00999946
0.00999946
0.00999946
0.00999946
0.00999946
0.00999946
0.00999946
0.00999946
0.00999946
0.00999946
0.00999946
0.00999946
0.00999946
0.00999946
0.00999946
0.00999946
0.00999946
0.00999946
0.00999946
0.00999946
0.00999946
0.00999946
0.00999946
0.00999946
0.00999946
0.00999946
0.00999946
0.00999946
0.00999946
0.00999946
0.00999946
0.009999463
0.010200742
0.010958391
0.0092168641
0.010197232
0.0098879751
0.0099471474
0.0099114268
0.009929603
0.0099336277
0.0099603701
0.0099817025
0.0099949797
0.009998929
0.0099995391
0.0099994988
0.009999477
0.0099994617
0.0099994599
0.0099994599
0.00999946
0.00999946
0.00999946
0.00999946
0.00999946
0.00999946
0.00999946
0.00999946
0.00999946
0.00999946
0.00999946
0.00999946
0.00999946
0.00999946
0.00999946
0.00999946
0.00999946
0.00999946
0.00999946
0.00999946
0.00999946
0.00999946
0.00999946
0.00999946
0.00999946
0.00999946
0.00999946
0.00999946
0.00999946
0.00999946
0.00999946
0.00999946
0.00999946
0.00999946
0.00999946
0.00999946
0.00999946
0.00999946
0.00999946
0.00999946
0.00999946
0.00999946
0.00999946
0.00999946
0.00999946
0.00999946
0.00999946
0.00999946
0.00999946
0.00999946
0.00999946
0.00999946
0.00999946
0.00999946
0.00999946
0.00999946
0.00999946
0.00999946
0.00999946
0.00999946
0.0099994632
0.010192145
0.010995713
0.0091454847
0.01022802
0.0098688343
0.0099449705
0.0099029421
0.009927238
0.0099283156
0.0099584092
0.0099810023
0.009994888
0.0099989322
0.0099995471
0.009999501
0.0099994774
0.0099994616
0.0099994599
0.0099994599
0.00999946
0.00999946
0.00999946
0.00999946
0.00999946
0.00999946
0.00999946
0.00999946
0.00999946
0.00999946
0.00999946
0.00999946
0.00999946
0.00999946
0.00999946
0.00999946
0.00999946
0.00999946
0.00999946
0.00999946
0.00999946
0.00999946
0.00999946
0.00999946
0.00999946
0.00999946
0.00999946
0.00999946
0.00999946
0.00999946
0.00999946
0.00999946
0.00999946
0.00999946
0.00999946
0.00999946
0.00999946
0.00999946
0.00999946
0.00999946
0.00999946
0.00999946
0.00999946
0.00999946
0.00999946
0.00999946
0.00999946
0.00999946
0.00999946
0.00999946
0.00999946
0.00999946
0.00999946
0.00999946
0.00999946
0.00999946
0.00999946
0.00999946
0.00999946
0.00999946
0.0099994635
0.010146579
0.011037368
0.0090777923
0.010254975
0.0098526403
0.0099436754
0.0098943812
0.0099271938
0.0099246994
0.0099579961
0.0099812047
0.0099951447
0.0099990021
0.009999553
0.0099995017
0.0099994767
0.0099994614
0.0099994599
0.0099994599
0.00999946
0.00999946
0.00999946
0.00999946
0.00999946
0.00999946
0.00999946
0.00999946
0.00999946
0.00999946
0.00999946
0.00999946
0.00999946
0.00999946
0.00999946
0.00999946
0.00999946
0.00999946
0.00999946
0.00999946
0.00999946
0.00999946
0.00999946
0.00999946
0.00999946
0.00999946
0.00999946
0.00999946
0.00999946
0.00999946
0.00999946
0.00999946
0.00999946
0.00999946
0.00999946
0.00999946
0.00999946
0.00999946
0.00999946
0.00999946
0.00999946
0.00999946
0.00999946
0.00999946
0.00999946
0.00999946
0.00999946
0.00999946
0.00999946
0.00999946
0.00999946
0.00999946
0.00999946
0.00999946
0.00999946
0.00999946
0.00999946
0.00999946
0.00999946
0.00999946
0.0099994637
0.0099760874
0.011117944
0.0090376926
0.010259481
0.0098429561
0.0099445317
0.009888862
0.009926383
0.0099240047
0.0099593299
0.0099823854
0.009995731
0.0099991239
0.0099995543
0.0099995007
0.0099994748
0.009999461
0.0099994599
0.0099994599
0.00999946
0.00999946
0.00999946
0.00999946
0.00999946
0.00999946
0.00999946
0.00999946
0.00999946
0.00999946
0.00999946
0.00999946
0.00999946
0.00999946
0.00999946
0.00999946
0.00999946
0.00999946
0.00999946
0.00999946
0.00999946
0.00999946
0.00999946
0.00999946
0.00999946
0.00999946
0.00999946
0.00999946
0.00999946
0.00999946
0.00999946
0.00999946
0.00999946
0.00999946
0.00999946
0.00999946
0.00999946
0.00999946
0.00999946
0.00999946
0.00999946
0.00999946
0.00999946
0.00999946
0.00999946
0.00999946
0.00999946
0.00999946
0.00999946
0.00999946
0.00999946
0.00999946
0.00999946
0.00999946
0.00999946
0.00999946
0.00999946
0.00999946
0.00999946
0.00999946
0.0099994639
0.009785575
0.011180255
0.0090769693
0.010223082
0.0098399534
0.0099586137
0.0098856919
0.0099213969
0.0099253244
0.009961943
0.0099841659
0.0099964562
0.0099992504
0.0099995507
0.009999498
0.0099994724
0.0099994606
0.0099994599
0.00999946
0.00999946
0.00999946
0.00999946
0.00999946
0.00999946
0.00999946
0.00999946
0.00999946
0.00999946
0.00999946
0.00999946
0.00999946
0.00999946
0.00999946
0.00999946
0.00999946
0.00999946
0.00999946
0.00999946
0.00999946
0.00999946
0.00999946
0.00999946
0.00999946
0.00999946
0.00999946
0.00999946
0.00999946
0.00999946
0.00999946
0.00999946
0.00999946
0.00999946
0.00999946
0.00999946
0.00999946
0.00999946
0.00999946
0.00999946
0.00999946
0.00999946
0.00999946
0.00999946
0.00999946
0.00999946
0.00999946
0.00999946
0.00999946
0.00999946
0.00999946
0.00999946
0.00999946
0.00999946
0.00999946
0.00999946
0.00999946
0.00999946
0.00999946
0.00999946
0.00999946
0.009999464
0.0097141198
0.011117722
0.009174699
0.010176014
0.0098424859
0.0099711903
0.0098929603
0.0099133666
0.0099275559
0.0099647338
0.0099858233
0.0099970543
0.0099993367
0.0099995451
0.0099994949
0.0099994702
0.0099994604
0.0099994599
0.00999946
0.00999946
0.00999946
0.00999946
0.00999946
0.00999946
0.00999946
0.00999946
0.00999946
0.00999946
0.00999946
0.00999946
0.00999946
0.00999946
0.00999946
0.00999946
0.00999946
0.00999946
0.00999946
0.00999946
0.00999946
0.00999946
0.00999946
0.00999946
0.00999946
0.00999946
0.00999946
0.00999946
0.00999946
0.00999946
0.00999946
0.00999946
0.00999946
0.00999946
0.00999946
0.00999946
0.00999946
0.00999946
0.00999946
0.00999946
0.00999946
0.00999946
0.00999946
0.00999946
0.00999946
0.00999946
0.00999946
0.00999946
0.00999946
0.00999946
0.00999946
0.00999946
0.00999946
0.00999946
0.00999946
0.00999946
0.00999946
0.00999946
0.00999946
0.00999946
0.00999946
0.0099994642
0.0096750263
0.010982817
0.0092970827
0.010134826
0.0098715847
0.0099603531
0.009894327
0.0099125562
0.0099291209
0.0099662894
0.0099866341
0.0099973154
0.0099993692
0.0099995419
0.0099994934
0.0099994693
0.0099994603
0.0099994599
0.00999946
0.00999946
0.00999946
0.00999946
0.00999946
0.00999946
0.00999946
0.00999946
0.00999946
0.00999946
0.00999946
0.00999946
0.00999946
0.00999946
0.00999946
0.00999946
0.00999946
0.00999946
0.00999946
0.00999946
0.00999946
0.00999946
0.00999946
0.00999946
0.00999946
0.00999946
0.00999946
0.00999946
0.00999946
0.00999946
0.00999946
0.00999946
0.00999946
0.00999946
0.00999946
0.00999946
0.00999946
0.00999946
0.00999946
0.00999946
0.00999946
0.00999946
0.00999946
0.00999946
0.00999946
0.00999946
0.00999946
0.00999946
0.00999946
0.00999946
0.00999946
0.00999946
0.00999946
0.00999946
0.00999946
0.00999946
0.00999946
0.00999946
0.00999946
0.00999946
0.00999946
0.0099994642
0.0096749197
0.010941388
0.0093520704
0.010115525
0.0098908984
0.0099472268
0.00989479
0.0099125405
0.0099281687
0.0099651761
0.0099858934
0.009996994
0.009999331
0.0099995414
0.0099994951
0.0099994706
0.0099994605
0.0099994599
0.00999946
0.00999946
0.00999946
0.00999946
0.00999946
0.00999946
0.00999946
0.00999946
0.00999946
0.00999946
0.00999946
0.00999946
0.00999946
0.00999946
0.00999946
0.00999946
0.00999946
0.00999946
0.00999946
0.00999946
0.00999946
0.00999946
0.00999946
0.00999946
0.00999946
0.00999946
0.00999946
0.00999946
0.00999946
0.00999946
0.00999946
0.00999946
0.00999946
0.00999946
0.00999946
0.00999946
0.00999946
0.00999946
0.00999946
0.00999946
0.00999946
0.00999946
0.00999946
0.00999946
0.00999946
0.00999946
0.00999946
0.00999946
0.00999946
0.00999946
0.00999946
0.00999946
0.00999946
0.00999946
0.00999946
0.00999946
0.00999946
0.00999946
0.00999946
0.00999946
0.00999946
0.0099994642
0.0107416
0.0097544977
0.010107392
0.010010375
0.010031534
0.010028845
0.010027389
0.010018611
0.01001004
0.01000342
0.010000485
0.0099995515
0.0099994477
0.009999452
0.0099994591
0.00999946
0.0099994601
0.00999946
0.00999946
0.00999946
0.00999946
0.00999946
0.00999946
0.00999946
0.00999946
0.00999946
0.00999946
0.00999946
0.00999946
0.00999946
0.00999946
0.00999946
0.00999946
0.00999946
0.00999946
0.00999946
0.00999946
0.00999946
0.00999946
0.00999946
0.00999946
0.00999946
0.00999946
0.00999946
0.00999946
0.00999946
0.00999946
0.00999946
0.00999946
0.00999946
0.00999946
0.00999946
0.00999946
0.00999946
0.00999946
0.00999946
0.00999946
0.00999946
0.00999946
0.00999946
0.00999946
0.00999946
0.00999946
0.00999946
0.00999946
0.00999946
0.00999946
0.00999946
0.00999946
0.00999946
0.00999946
0.00999946
0.00999946
0.00999946
0.00999946
0.00999946
0.00999946
0.00999946
0.00999946
0.00999946
0.010737113
0.0097687195
0.010106579
0.010008055
0.010031016
0.010027805
0.010027996
0.010018551
0.010010633
0.010003958
0.01000078
0.0099996122
0.0099994483
0.0099994505
0.0099994586
0.0099994599
0.0099994601
0.00999946
0.00999946
0.00999946
0.00999946
0.00999946
0.00999946
0.00999946
0.00999946
0.00999946
0.00999946
0.00999946
0.00999946
0.00999946
0.00999946
0.00999946
0.00999946
0.00999946
0.00999946
0.00999946
0.00999946
0.00999946
0.00999946
0.00999946
0.00999946
0.00999946
0.00999946
0.00999946
0.00999946
0.00999946
0.00999946
0.00999946
0.00999946
0.00999946
0.00999946
0.00999946
0.00999946
0.00999946
0.00999946
0.00999946
0.00999946
0.00999946
0.00999946
0.00999946
0.00999946
0.00999946
0.00999946
0.00999946
0.00999946
0.00999946
0.00999946
0.00999946
0.00999946
0.00999946
0.00999946
0.00999946
0.00999946
0.00999946
0.00999946
0.00999946