/*--------------------------------*- C++ -*----------------------------------*\
| =========                 |                                                 |
| \\      /  F ield         | OpenFOAM: The Open Source CFD Toolbox           |
|  \\    /   O peration     | Version:  2406                                  |
|   \\  /    A nd           | Website:  www.openfoam.com                      |
|    \\/     M anipulation  |                                                 |
\*---------------------------------------------------------------------------*/
FoamFile
{
    version     2.0;
    format      ascii;
    arch        "LSB;label=32;scalar=64";
    class       volScalarField;
    location    "6e-05";
    object      nut;
}
// * * * * * * * * * * * * * * * * * * * * * * * * * * * * * * * * * * * * * //

dimensions      [0 2 -1 0 0 0 0];

internalField   nonuniform List<scalar> 
16000
(
9.8664595e-06
6.3654785e-05
0.00039365152
0.0001498119
0.00020025587
0.00012267169
0.00013224675
0.00015661172
0.00018131493
0.00040325305
0.00089983572
0.00099994642
0.00099994615
0.00099994605
0.000999946
0.000999946
0.000999946
0.000999946
0.000999946
0.000999946
0.000999946
0.000999946
0.000999946
0.000999946
0.000999946
0.000999946
0.000999946
0.000999946
0.000999946
0.000999946
0.000999946
0.000999946
0.000999946
0.000999946
0.000999946
0.000999946
0.000999946
0.000999946
0.000999946
0.000999946
0.000999946
0.000999946
0.000999946
0.000999946
0.000999946
0.000999946
0.000999946
0.000999946
0.000999946
0.000999946
0.000999946
0.000999946
0.000999946
0.000999946
0.000999946
0.000999946
0.000999946
0.000999946
0.000999946
0.000999946
0.000999946
0.000999946
0.000999946
0.000999946
0.000999946
0.000999946
0.000999946
0.000999946
0.000999946
0.000999946
0.000999946
0.000999946
0.000999946
0.000999946
0.000999946
0.000999946
0.000999946
0.000999946
0.000999946
0.00099994601
9.5690756e-06
7.2521595e-05
0.00011115798
0.00010812913
0.00010607506
0.00011282801
8.4985334e-05
7.3957181e-05
6.5443313e-05
0.00012263302
0.00029262301
0.00099994576
0.00099994612
0.00099994616
0.00099994603
0.000999946
0.000999946
0.000999946
0.000999946
0.000999946
0.000999946
0.000999946
0.000999946
0.000999946
0.000999946
0.000999946
0.000999946
0.000999946
0.000999946
0.000999946
0.000999946
0.000999946
0.000999946
0.000999946
0.000999946
0.000999946
0.000999946
0.000999946
0.000999946
0.000999946
0.000999946
0.000999946
0.000999946
0.000999946
0.000999946
0.000999946
0.000999946
0.000999946
0.000999946
0.000999946
0.000999946
0.000999946
0.000999946
0.000999946
0.000999946
0.000999946
0.000999946
0.000999946
0.000999946
0.000999946
0.000999946
0.000999946
0.000999946
0.000999946
0.000999946
0.000999946
0.000999946
0.000999946
0.000999946
0.000999946
0.000999946
0.000999946
0.000999946
0.000999946
0.000999946
0.000999946
0.000999946
0.000999946
0.000999946
0.00099994601
9.3010315e-06
0.00010428601
4.117704e-05
7.7187767e-05
5.6807669e-05
0.00010708688
5.8865231e-05
4.6527432e-05
3.8585063e-05
6.7405706e-05
0.00014307712
0.0005059385
0.00099994596
0.00099994627
0.00099994607
0.00099994601
0.000999946
0.000999946
0.000999946
0.000999946
0.000999946
0.000999946
0.000999946
0.000999946
0.000999946
0.000999946
0.000999946
0.000999946
0.000999946
0.000999946
0.000999946
0.000999946
0.000999946
0.000999946
0.000999946
0.000999946
0.000999946
0.000999946
0.000999946
0.000999946
0.000999946
0.000999946
0.000999946
0.000999946
0.000999946
0.000999946
0.000999946
0.000999946
0.000999946
0.000999946
0.000999946
0.000999946
0.000999946
0.000999946
0.000999946
0.000999946
0.000999946
0.000999946
0.000999946
0.000999946
0.000999946
0.000999946
0.000999946
0.000999946
0.000999946
0.000999946
0.000999946
0.000999946
0.000999946
0.000999946
0.000999946
0.000999946
0.000999946
0.000999946
0.000999946
0.000999946
0.000999946
0.000999946
0.000999946
0.00099994602
5.6329569e-06
0.00030026437
2.6422816e-05
5.9599281e-05
3.7837327e-05
0.00010056529
4.7791076e-05
3.3359032e-05
2.648193e-05
4.3864392e-05
8.5186144e-05
0.00028898406
0.00099994574
0.0009999464
0.00099994613
0.00099994602
0.000999946
0.000999946
0.000999946
0.000999946
0.000999946
0.000999946
0.000999946
0.000999946
0.000999946
0.000999946
0.000999946
0.000999946
0.000999946
0.000999946
0.000999946
0.000999946
0.000999946
0.000999946
0.000999946
0.000999946
0.000999946
0.000999946
0.000999946
0.000999946
0.000999946
0.000999946
0.000999946
0.000999946
0.000999946
0.000999946
0.000999946
0.000999946
0.000999946
0.000999946
0.000999946
0.000999946
0.000999946
0.000999946
0.000999946
0.000999946
0.000999946
0.000999946
0.000999946
0.000999946
0.000999946
0.000999946
0.000999946
0.000999946
0.000999946
0.000999946
0.000999946
0.000999946
0.000999946
0.000999946
0.000999946
0.000999946
0.000999946
0.000999946
0.000999946
0.000999946
0.000999946
0.000999946
0.000999946
0.00099994603
4.1626334e-06
0.00019147238
1.9947557e-05
4.7659324e-05
3.0085904e-05
9.1124484e-05
4.4226422e-05
2.5781991e-05
1.9712035e-05
3.1346591e-05
5.6671926e-05
0.00018499435
0.00099994542
0.00099994655
0.00099994619
0.00099994603
0.000999946
0.000999946
0.000999946
0.000999946
0.000999946
0.000999946
0.000999946
0.000999946
0.000999946
0.000999946
0.000999946
0.000999946
0.000999946
0.000999946
0.000999946
0.000999946
0.000999946
0.000999946
0.000999946
0.000999946
0.000999946
0.000999946
0.000999946
0.000999946
0.000999946
0.000999946
0.000999946
0.000999946
0.000999946
0.000999946
0.000999946
0.000999946
0.000999946
0.000999946
0.000999946
0.000999946
0.000999946
0.000999946
0.000999946
0.000999946
0.000999946
0.000999946
0.000999946
0.000999946
0.000999946
0.000999946
0.000999946
0.000999946
0.000999946
0.000999946
0.000999946
0.000999946
0.000999946
0.000999946
0.000999946
0.000999946
0.000999946
0.000999946
0.000999946
0.000999946
0.000999946
0.000999946
0.000999946
0.00099994604
3.1856555e-06
9.5237838e-05
1.6040084e-05
4.0785483e-05
2.730623e-05
6.9983355e-05
4.6746626e-05
2.0664993e-05
1.5453869e-05
2.3751554e-05
4.0815728e-05
0.00012681968
0.00099994507
0.00099994671
0.00099994626
0.00099994605
0.000999946
0.000999946
0.000999946
0.000999946
0.000999946
0.000999946
0.000999946
0.000999946
0.000999946
0.000999946
0.000999946
0.000999946
0.000999946
0.000999946
0.000999946
0.000999946
0.000999946
0.000999946
0.000999946
0.000999946
0.000999946
0.000999946
0.000999946
0.000999946
0.000999946
0.000999946
0.000999946
0.000999946
0.000999946
0.000999946
0.000999946
0.000999946
0.000999946
0.000999946
0.000999946
0.000999946
0.000999946
0.000999946
0.000999946
0.000999946
0.000999946
0.000999946
0.000999946
0.000999946
0.000999946
0.000999946
0.000999946
0.000999946
0.000999946
0.000999946
0.000999946
0.000999946
0.000999946
0.000999946
0.000999946
0.000999946
0.000999946
0.000999946
0.000999946
0.000999946
0.000999946
0.000999946
0.000999946
0.00099994605
2.5118942e-06
5.9234995e-05
1.3240484e-05
3.5834928e-05
2.5956817e-05
5.07402e-05
5.3595098e-05
1.7181059e-05
1.2572765e-05
1.8740772e-05
3.1232058e-05
9.2671929e-05
0.00076866152
0.00099994688
0.00099994635
0.00099994607
0.000999946
0.000999946
0.000999946
0.000999946
0.000999946
0.000999946
0.000999946
0.000999946
0.000999946
0.000999946
0.000999946
0.000999946
0.000999946
0.000999946
0.000999946
0.000999946
0.000999946
0.000999946
0.000999946
0.000999946
0.000999946
0.000999946
0.000999946
0.000999946
0.000999946
0.000999946
0.000999946
0.000999946
0.000999946
0.000999946
0.000999946
0.000999946
0.000999946
0.000999946
0.000999946
0.000999946
0.000999946
0.000999946
0.000999946
0.000999946
0.000999946
0.000999946
0.000999946
0.000999946
0.000999946
0.000999946
0.000999946
0.000999946
0.000999946
0.000999946
0.000999946
0.000999946
0.000999946
0.000999946
0.000999946
0.000999946
0.000999946
0.000999946
0.000999946
0.000999946
0.000999946
0.000999946
0.000999946
0.00099994606
2.0361517e-06
3.935044e-05
1.1632033e-05
3.2049228e-05
2.5487183e-05
3.8471743e-05
6.4247592e-05
1.4772402e-05
1.0493518e-05
1.5223718e-05
2.4667213e-05
7.0832803e-05
0.00052946776
0.00099994705
0.00099994646
0.0009999461
0.000999946
0.000999946
0.000999946
0.000999946
0.000999946
0.000999946
0.000999946
0.000999946
0.000999946
0.000999946
0.000999946
0.000999946
0.000999946
0.000999946
0.000999946
0.000999946
0.000999946
0.000999946
0.000999946
0.000999946
0.000999946
0.000999946
0.000999946
0.000999946
0.000999946
0.000999946
0.000999946
0.000999946
0.000999946
0.000999946
0.000999946
0.000999946
0.000999946
0.000999946
0.000999946
0.000999946
0.000999946
0.000999946
0.000999946
0.000999946
0.000999946
0.000999946
0.000999946
0.000999946
0.000999946
0.000999946
0.000999946
0.000999946
0.000999946
0.000999946
0.000999946
0.000999946
0.000999946
0.000999946
0.000999946
0.000999946
0.000999946
0.000999946
0.000999946
0.000999946
0.000999946
0.000999946
0.000999946
0.00099994607
1.692949e-06
2.715079e-05
1.0773188e-05
2.9387153e-05
2.5647171e-05
3.0195355e-05
6.7656734e-05
1.2978764e-05
8.9429807e-06
1.2641627e-05
1.9961211e-05
5.5632774e-05
0.00038007122
0.00099994722
0.00099994657
0.00099994614
0.000999946
0.000999946
0.000999946
0.000999946
0.000999946
0.000999946
0.000999946
0.000999946
0.000999946
0.000999946
0.000999946
0.000999946
0.000999946
0.000999946
0.000999946
0.000999946
0.000999946
0.000999946
0.000999946
0.000999946
0.000999946
0.000999946
0.000999946
0.000999946
0.000999946
0.000999946
0.000999946
0.000999946
0.000999946
0.000999946
0.000999946
0.000999946
0.000999946
0.000999946
0.000999946
0.000999946
0.000999946
0.000999946
0.000999946
0.000999946
0.000999946
0.000999946
0.000999946
0.000999946
0.000999946
0.000999946
0.000999946
0.000999946
0.000999946
0.000999946
0.000999946
0.000999946
0.000999946
0.000999946
0.000999946
0.000999946
0.000999946
0.000999946
0.000999946
0.000999946
0.000999946
0.000999946
0.000999946
0.00099994608
1.4403863e-06
1.9271621e-05
9.8838274e-06
2.7531568e-05
2.6434433e-05
2.4450416e-05
5.3663105e-05
1.157819e-05
7.7459627e-06
1.0676959e-05
1.6463494e-05
4.4643092e-05
0.00028182267
0.00099994738
0.0009999467
0.00099994618
0.00099994601
0.000999946
0.000999946
0.000999946
0.000999946
0.000999946
0.000999946
0.000999946
0.000999946
0.000999946
0.000999946
0.000999946
0.000999946
0.000999946
0.000999946
0.000999946
0.000999946
0.000999946
0.000999946
0.000999946
0.000999946
0.000999946
0.000999946
0.000999946
0.000999946
0.000999946
0.000999946
0.000999946
0.000999946
0.000999946
0.000999946
0.000999946
0.000999946
0.000999946
0.000999946
0.000999946
0.000999946
0.000999946
0.000999946
0.000999946
0.000999946
0.000999946
0.000999946
0.000999946
0.000999946
0.000999946
0.000999946
0.000999946
0.000999946
0.000999946
0.000999946
0.000999946
0.000999946
0.000999946
0.000999946
0.000999946
0.000999946
0.000999946
0.000999946
0.000999946
0.000999946
0.000999946
0.000999946
0.00099994609
1.2541581e-06
1.3907574e-05
8.8870278e-06
2.6535483e-05
2.7766325e-05
2.0350281e-05
3.7618198e-05
1.0458486e-05
6.7973426e-06
9.1366509e-06
1.3784789e-05
3.6442872e-05
0.00021443032
0.00099994755
0.00099994684
0.00099994624
0.00099994601
0.000999946
0.000999946
0.000999946
0.000999946
0.000999946
0.000999946
0.000999946
0.000999946
0.000999946
0.000999946
0.000999946
0.000999946
0.000999946
0.000999946
0.000999946
0.000999946
0.000999946
0.000999946
0.000999946
0.000999946
0.000999946
0.000999946
0.000999946
0.000999946
0.000999946
0.000999946
0.000999946
0.000999946
0.000999946
0.000999946
0.000999946
0.000999946
0.000999946
0.000999946
0.000999946
0.000999946
0.000999946
0.000999946
0.000999946
0.000999946
0.000999946
0.000999946
0.000999946
0.000999946
0.000999946
0.000999946
0.000999946
0.000999946
0.000999946
0.000999946
0.000999946
0.000999946
0.000999946
0.000999946
0.000999946
0.000999946
0.000999946
0.000999946
0.000999946
0.000999946
0.000999946
0.000999946
0.0009999461
1.117324e-06
1.023545e-05
7.81575e-06
2.6563009e-05
2.9545263e-05
1.7373827e-05
2.6888059e-05
9.5420668e-06
6.0261235e-06
7.898429e-06
1.1678375e-05
3.0154177e-05
0.00016652515
0.00099994775
0.000999947
0.0009999463
0.00099994602
0.000999946
0.000999946
0.000999946
0.000999946
0.000999946
0.000999946
0.000999946
0.000999946
0.000999946
0.000999946
0.000999946
0.000999946
0.000999946
0.000999946
0.000999946
0.000999946
0.000999946
0.000999946
0.000999946
0.000999946
0.000999946
0.000999946
0.000999946
0.000999946
0.000999946
0.000999946
0.000999946
0.000999946
0.000999946
0.000999946
0.000999946
0.000999946
0.000999946
0.000999946
0.000999946
0.000999946
0.000999946
0.000999946
0.000999946
0.000999946
0.000999946
0.000999946
0.000999946
0.000999946
0.000999946
0.000999946
0.000999946
0.000999946
0.000999946
0.000999946
0.000999946
0.000999946
0.000999946
0.000999946
0.000999946
0.000999946
0.000999946
0.000999946
0.000999946
0.000999946
0.000999946
0.000999946
0.00099994611
1.0119009e-06
7.9137271e-06
7.3019387e-06
2.6262287e-05
3.1031833e-05
1.5113661e-05
1.999747e-05
8.7613122e-06
5.3857061e-06
6.8814119e-06
9.9857068e-06
2.521766e-05
0.00013142862
0.00099994801
0.00099994717
0.00099994637
0.00099994602
0.000999946
0.000999946
0.000999946
0.000999946
0.000999946
0.000999946
0.000999946
0.000999946
0.000999946
0.000999946
0.000999946
0.000999946
0.000999946
0.000999946
0.000999946
0.000999946
0.000999946
0.000999946
0.000999946
0.000999946
0.000999946
0.000999946
0.000999946
0.000999946
0.000999946
0.000999946
0.000999946
0.000999946
0.000999946
0.000999946
0.000999946
0.000999946
0.000999946
0.000999946
0.000999946
0.000999946
0.000999946
0.000999946
0.000999946
0.000999946
0.000999946
0.000999946
0.000999946
0.000999946
0.000999946
0.000999946
0.000999946
0.000999946
0.000999946
0.000999946
0.000999946
0.000999946
0.000999946
0.000999946
0.000999946
0.000999946
0.000999946
0.000999946
0.000999946
0.000999946
0.000999946
0.000999946
0.00099994613
9.3674895e-07
6.3759433e-06
6.9401358e-06
2.5209668e-05
3.1912817e-05
1.3296223e-05
1.53677e-05
8.0850244e-06
4.8446776e-06
6.0310859e-06
8.599027e-06
2.1261569e-05
0.00010503765
0.00086574197
0.00099994736
0.00099994645
0.00099994603
0.000999946
0.000999946
0.000999946
0.000999946
0.000999946
0.000999946
0.000999946
0.000999946
0.000999946
0.000999946
0.000999946
0.000999946
0.000999946
0.000999946
0.000999946
0.000999946
0.000999946
0.000999946
0.000999946
0.000999946
0.000999946
0.000999946
0.000999946
0.000999946
0.000999946
0.000999946
0.000999946
0.000999946
0.000999946
0.000999946
0.000999946
0.000999946
0.000999946
0.000999946
0.000999946
0.000999946
0.000999946
0.000999946
0.000999946
0.000999946
0.000999946
0.000999946
0.000999946
0.000999946
0.000999946
0.000999946
0.000999946
0.000999946
0.000999946
0.000999946
0.000999946
0.000999946
0.000999946
0.000999946
0.000999946
0.000999946
0.000999946
0.000999946
0.000999946
0.000999946
0.000999946
0.000999946
0.00099994614
8.9010212e-07
5.2223773e-06
6.2760175e-06
2.4298035e-05
3.1608603e-05
1.1844836e-05
1.2119076e-05
7.503773e-06
4.3827016e-06
5.3112016e-06
7.4451788e-06
1.8036661e-05
8.476284e-05
0.00066572755
0.00099994756
0.00099994655
0.00099994604
0.000999946
0.000999946
0.000999946
0.000999946
0.000999946
0.000999946
0.000999946
0.000999946
0.000999946
0.000999946
0.000999946
0.000999946
0.000999946
0.000999946
0.000999946
0.000999946
0.000999946
0.000999946
0.000999946
0.000999946
0.000999946
0.000999946
0.000999946
0.000999946
0.000999946
0.000999946
0.000999946
0.000999946
0.000999946
0.000999946
0.000999946
0.000999946
0.000999946
0.000999946
0.000999946
0.000999946
0.000999946
0.000999946
0.000999946
0.000999946
0.000999946
0.000999946
0.000999946
0.000999946
0.000999946
0.000999946
0.000999946
0.000999946
0.000999946
0.000999946
0.000999946
0.000999946
0.000999946
0.000999946
0.000999946
0.000999946
0.000999946
0.000999946
0.000999946
0.000999946
0.000999946
0.000999946
0.00099994616
8.5981306e-07
4.340881e-06
5.5913122e-06
2.3657634e-05
2.8774701e-05
1.070589e-05
9.7394337e-06
7.0052767e-06
3.9850742e-06
4.6961596e-06
6.4736843e-06
1.5372998e-05
6.892197e-05
0.00051892441
0.00099994779
0.00099994666
0.00099994605
0.000999946
0.000999946
0.000999946
0.000999946
0.000999946
0.000999946
0.000999946
0.000999946
0.000999946
0.000999946
0.000999946
0.000999946
0.000999946
0.000999946
0.000999946
0.000999946
0.000999946
0.000999946
0.000999946
0.000999946
0.000999946
0.000999946
0.000999946
0.000999946
0.000999946
0.000999946
0.000999946
0.000999946
0.000999946
0.000999946
0.000999946
0.000999946
0.000999946
0.000999946
0.000999946
0.000999946
0.000999946
0.000999946
0.000999946
0.000999946
0.000999946
0.000999946
0.000999946
0.000999946
0.000999946
0.000999946
0.000999946
0.000999946
0.000999946
0.000999946
0.000999946
0.000999946
0.000999946
0.000999946
0.000999946
0.000999946
0.000999946
0.000999946
0.000999946
0.000999946
0.000999946
0.000999946
0.00099994617
8.4153642e-07
3.8048414e-06
4.9955305e-06
2.2765766e-05
2.3425584e-05
1.0115217e-05
7.9492153e-06
6.5543805e-06
3.6369591e-06
4.1652065e-06
5.6484895e-06
1.3154176e-05
5.6410635e-05
0.00040916863
0.00099994803
0.00099994678
0.00099994607
0.000999946
0.000999946
0.000999946
0.000999946
0.000999946
0.000999946
0.000999946
0.000999946
0.000999946
0.000999946
0.000999946
0.000999946
0.000999946
0.000999946
0.000999946
0.000999946
0.000999946
0.000999946
0.000999946
0.000999946
0.000999946
0.000999946
0.000999946
0.000999946
0.000999946
0.000999946
0.000999946
0.000999946
0.000999946
0.000999946
0.000999946
0.000999946
0.000999946
0.000999946
0.000999946
0.000999946
0.000999946
0.000999946
0.000999946
0.000999946
0.000999946
0.000999946
0.000999946
0.000999946
0.000999946
0.000999946
0.000999946
0.000999946
0.000999946
0.000999946
0.000999946
0.000999946
0.000999946
0.000999946
0.000999946
0.000999946
0.000999946
0.000999946
0.000999946
0.000999946
0.000999946
0.000999946
0.00099994619
8.3673476e-07
3.1760974e-06
4.893548e-06
1.9548438e-05
1.783055e-05
9.5299997e-06
6.5975161e-06
6.0940765e-06
3.3157506e-06
3.6957552e-06
4.939498e-06
1.1295586e-05
4.6502278e-05
0.00032647843
0.0009999483
0.00099994693
0.00099994608
0.000999946
0.000999946
0.000999946
0.000999946
0.000999946
0.000999946
0.000999946
0.000999946
0.000999946
0.000999946
0.000999946
0.000999946
0.000999946
0.000999946
0.000999946
0.000999946
0.000999946
0.000999946
0.000999946
0.000999946
0.000999946
0.000999946
0.000999946
0.000999946
0.000999946
0.000999946
0.000999946
0.000999946
0.000999946
0.000999946
0.000999946
0.000999946
0.000999946
0.000999946
0.000999946
0.000999946
0.000999946
0.000999946
0.000999946
0.000999946
0.000999946
0.000999946
0.000999946
0.000999946
0.000999946
0.000999946
0.000999946
0.000999946
0.000999946
0.000999946
0.000999946
0.000999946
0.000999946
0.000999946
0.000999946
0.000999946
0.000999946
0.000999946
0.000999946
0.000999946
0.000999946
0.000999946
0.00099994621
8.4204866e-07
3.8076981e-06
3.7861362e-06
1.8971433e-05
1.3322574e-05
8.9144182e-06
5.4743395e-06
5.5592445e-06
3.0051513e-06
3.2657332e-06
4.3229426e-06
9.7321965e-06
3.869361e-05
0.00026458558
0.00099994859
0.00099994709
0.00099994611
0.000999946
0.000999946
0.000999946
0.000999946
0.000999946
0.000999946
0.000999946
0.000999946
0.000999946
0.000999946
0.000999946
0.000999946
0.000999946
0.000999946
0.000999946
0.000999946
0.000999946
0.000999946
0.000999946
0.000999946
0.000999946
0.000999946
0.000999946
0.000999946
0.000999946
0.000999946
0.000999946
0.000999946
0.000999946
0.000999946
0.000999946
0.000999946
0.000999946
0.000999946
0.000999946
0.000999946
0.000999946
0.000999946
0.000999946
0.000999946
0.000999946
0.000999946
0.000999946
0.000999946
0.000999946
0.000999946
0.000999946
0.000999946
0.000999946
0.000999946
0.000999946
0.000999946
0.000999946
0.000999946
0.000999946
0.000999946
0.000999946
0.000999946
0.000999946
0.000999946
0.000999946
0.000999946
0.00099994623
9.2179995e-07
2.7551739e-06
3.5006154e-06
1.5426187e-05
1.2102846e-05
7.2609048e-06
4.6413326e-06
5.0108837e-06
2.7078309e-06
2.880687e-06
3.79041e-06
8.427493e-06
3.2605905e-05
0.00021886751
0.00099994891
0.00099994726
0.00099994613
0.00099994599
0.000999946
0.000999946
0.000999946
0.000999946
0.000999946
0.000999946
0.000999946
0.000999946
0.000999946
0.000999946
0.000999946
0.000999946
0.000999946
0.000999946
0.000999946
0.000999946
0.000999946
0.000999946
0.000999946
0.000999946
0.000999946
0.000999946
0.000999946
0.000999946
0.000999946
0.000999946
0.000999946
0.000999946
0.000999946
0.000999946
0.000999946
0.000999946
0.000999946
0.000999946
0.000999946
0.000999946
0.000999946
0.000999946
0.000999946
0.000999946
0.000999946
0.000999946
0.000999946
0.000999946
0.000999946
0.000999946
0.000999946
0.000999946
0.000999946
0.000999946
0.000999946
0.000999946
0.000999946
0.000999946
0.000999946
0.000999946
0.000999946
0.000999946
0.000999946
0.000999946
0.000999946
0.00099994625
9.8976194e-07
2.1819198e-06
2.6127489e-06
1.5248141e-05
9.4177116e-06
6.719581e-06
4.1884485e-06
4.6390876e-06
2.4549992e-06
2.5696864e-06
3.3509277e-06
7.3785959e-06
2.7991657e-05
0.00018584438
0.00099994925
0.00099994744
0.00099994615
0.00099994599
0.00099994599
0.000999946
0.000999946
0.000999946
0.000999946
0.000999946
0.000999946
0.000999946
0.000999946
0.000999946
0.000999946
0.000999946
0.000999946
0.000999946
0.000999946
0.000999946
0.000999946
0.000999946
0.000999946
0.000999946
0.000999946
0.000999946
0.000999946
0.000999946
0.000999946
0.000999946
0.000999946
0.000999946
0.000999946
0.000999946
0.000999946
0.000999946
0.000999946
0.000999946
0.000999946
0.000999946
0.000999946
0.000999946
0.000999946
0.000999946
0.000999946
0.000999946
0.000999946
0.000999946
0.000999946
0.000999946
0.000999946
0.000999946
0.000999946
0.000999946
0.000999946
0.000999946
0.000999946
0.000999946
0.000999946
0.000999946
0.000999946
0.000999946
0.000999946
0.000999946
0.000999946
0.00099994628
1.0415329e-06
2.877608e-06
2.3508425e-06
1.5771554e-05
6.9394777e-06
6.3801378e-06
3.7141019e-06
4.2858066e-06
2.249151e-06
2.3258841e-06
3.0090484e-06
6.5896446e-06
2.4757327e-05
0.00016400629
0.00099994959
0.00099994759
0.00099994616
0.00099994599
0.00099994599
0.000999946
0.000999946
0.000999946
0.000999946
0.000999946
0.000999946
0.000999946
0.000999946
0.000999946
0.000999946
0.000999946
0.000999946
0.000999946
0.000999946
0.000999946
0.000999946
0.000999946
0.000999946
0.000999946
0.000999946
0.000999946
0.000999946
0.000999946
0.000999946
0.000999946
0.000999946
0.000999946
0.000999946
0.000999946
0.000999946
0.000999946
0.000999946
0.000999946
0.000999946
0.000999946
0.000999946
0.000999946
0.000999946
0.000999946
0.000999946
0.000999946
0.000999946
0.000999946
0.000999946
0.000999946
0.000999946
0.000999946
0.000999946
0.000999946
0.000999946
0.000999946
0.000999946
0.000999946
0.000999946
0.000999946
0.000999946
0.000999946
0.000999946
0.000999946
0.000999946
0.0009999463
1.1334078e-06
2.3928563e-06
2.4883079e-06
1.2755067e-05
5.6322164e-06
5.8340763e-06
3.3961226e-06
5.7222734e-06
2.0526799e-06
2.13458e-06
2.7570843e-06
6.0614602e-06
2.2935055e-05
0.00015306028
0.00099994988
0.0009999477
0.00099994617
0.00099994599
0.00099994599
0.000999946
0.000999946
0.000999946
0.000999946
0.000999946
0.000999946
0.000999946
0.000999946
0.000999946
0.000999946
0.000999946
0.000999946
0.000999946
0.000999946
0.000999946
0.000999946
0.000999946
0.000999946
0.000999946
0.000999946
0.000999946
0.000999946
0.000999946
0.000999946
0.000999946
0.000999946
0.000999946
0.000999946
0.000999946
0.000999946
0.000999946
0.000999946
0.000999946
0.000999946
0.000999946
0.000999946
0.000999946
0.000999946
0.000999946
0.000999946
0.000999946
0.000999946
0.000999946
0.000999946
0.000999946
0.000999946
0.000999946
0.000999946
0.000999946
0.000999946
0.000999946
0.000999946
0.000999946
0.000999946
0.000999946
0.000999946
0.000999946
0.000999946
0.000999946
0.000999946
0.00099994632
1.0917349e-06
2.2429876e-06
2.5665604e-06
9.1486876e-06
4.7001516e-06
5.1850661e-06
3.9743036e-06
7.7506686e-06
1.8657208e-06
1.9928481e-06
2.5939684e-06
5.7935091e-06
2.2611886e-05
0.00015457623
0.0009999501
0.00099994774
0.00099994616
0.00099994599
0.00099994599
0.000999946
0.000999946
0.000999946
0.000999946
0.000999946
0.000999946
0.000999946
0.000999946
0.000999946
0.000999946
0.000999946
0.000999946
0.000999946
0.000999946
0.000999946
0.000999946
0.000999946
0.000999946
0.000999946
0.000999946
0.000999946
0.000999946
0.000999946
0.000999946
0.000999946
0.000999946
0.000999946
0.000999946
0.000999946
0.000999946
0.000999946
0.000999946
0.000999946
0.000999946
0.000999946
0.000999946
0.000999946
0.000999946
0.000999946
0.000999946
0.000999946
0.000999946
0.000999946
0.000999946
0.000999946
0.000999946
0.000999946
0.000999946
0.000999946
0.000999946
0.000999946
0.000999946
0.000999946
0.000999946
0.000999946
0.000999946
0.000999946
0.000999946
0.000999946
0.000999946
0.00099994635
1.0217357e-06
3.008535e-06
3.007993e-06
6.8439816e-06
4.6160431e-06
4.6540664e-06
4.0191248e-06
4.4860816e-06
1.6928322e-06
1.9008057e-06
2.5148988e-06
5.7894189e-06
2.4005329e-05
0.00017175696
0.00099995017
0.00099994767
0.00099994614
0.00099994599
0.00099994599
0.000999946
0.000999946
0.000999946
0.000999946
0.000999946
0.000999946
0.000999946
0.000999946
0.000999946
0.000999946
0.000999946
0.000999946
0.000999946
0.000999946
0.000999946
0.000999946
0.000999946
0.000999946
0.000999946
0.000999946
0.000999946
0.000999946
0.000999946
0.000999946
0.000999946
0.000999946
0.000999946
0.000999946
0.000999946
0.000999946
0.000999946
0.000999946
0.000999946
0.000999946
0.000999946
0.000999946
0.000999946
0.000999946
0.000999946
0.000999946
0.000999946
0.000999946
0.000999946
0.000999946
0.000999946
0.000999946
0.000999946
0.000999946
0.000999946
0.000999946
0.000999946
0.000999946
0.000999946
0.000999946
0.000999946
0.000999946
0.000999946
0.000999946
0.000999946
0.000999946
0.00099994637
9.5864347e-07
4.6326358e-06
2.8452318e-06
5.8615454e-06
4.3629919e-06
4.3289342e-06
3.6422705e-06
3.0548002e-06
1.5490798e-06
1.8477019e-06
2.5217577e-06
6.0700295e-06
2.7633504e-05
0.00021352302
0.00099995007
0.00099994748
0.0009999461
0.00099994599
0.00099994599
0.000999946
0.000999946
0.000999946
0.000999946
0.000999946
0.000999946
0.000999946
0.000999946
0.000999946
0.000999946
0.000999946
0.000999946
0.000999946
0.000999946
0.000999946
0.000999946
0.000999946
0.000999946
0.000999946
0.000999946
0.000999946
0.000999946
0.000999946
0.000999946
0.000999946
0.000999946
0.000999946
0.000999946
0.000999946
0.000999946
0.000999946
0.000999946
0.000999946
0.000999946
0.000999946
0.000999946
0.000999946
0.000999946
0.000999946
0.000999946
0.000999946
0.000999946
0.000999946
0.000999946
0.000999946
0.000999946
0.000999946
0.000999946
0.000999946
0.000999946
0.000999946
0.000999946
0.000999946
0.000999946
0.000999946
0.000999946
0.000999946
0.000999946
0.000999946
0.000999946
0.00099994639
9.0143972e-07
3.7455446e-06
1.2444966e-06
3.8471252e-06
4.2170215e-06
4.0763907e-06
3.9759492e-06
2.1014327e-06
1.443765e-06
1.8241065e-06
2.6021797e-06
6.5988108e-06
3.37283e-05
0.00029168739
0.0009999498
0.00099994724
0.00099994606
0.00099994599
0.000999946
0.000999946
0.000999946
0.000999946
0.000999946
0.000999946
0.000999946
0.000999946
0.000999946
0.000999946
0.000999946
0.000999946
0.000999946
0.000999946
0.000999946
0.000999946
0.000999946
0.000999946
0.000999946
0.000999946
0.000999946
0.000999946
0.000999946
0.000999946
0.000999946
0.000999946
0.000999946
0.000999946
0.000999946
0.000999946
0.000999946
0.000999946
0.000999946
0.000999946
0.000999946
0.000999946
0.000999946
0.000999946
0.000999946
0.000999946
0.000999946
0.000999946
0.000999946
0.000999946
0.000999946
0.000999946
0.000999946
0.000999946
0.000999946
0.000999946
0.000999946
0.000999946
0.000999946
0.000999946
0.000999946
0.000999946
0.000999946
0.000999946
0.000999946
0.000999946
0.000999946
0.0009999464
7.9555456e-07
1.7821954e-06
9.7988348e-07
2.7164196e-06
3.4274167e-06
3.8321013e-06
4.4498577e-06
2.0759859e-06
1.3803566e-06
1.8306407e-06
2.7123652e-06
7.1986674e-06
4.1012444e-05
0.00040518462
0.00099994949
0.00099994702
0.00099994604
0.00099994599
0.000999946
0.000999946
0.000999946
0.000999946
0.000999946
0.000999946
0.000999946
0.000999946
0.000999946
0.000999946
0.000999946
0.000999946
0.000999946
0.000999946
0.000999946
0.000999946
0.000999946
0.000999946
0.000999946
0.000999946
0.000999946
0.000999946
0.000999946
0.000999946
0.000999946
0.000999946
0.000999946
0.000999946
0.000999946
0.000999946
0.000999946
0.000999946
0.000999946
0.000999946
0.000999946
0.000999946
0.000999946
0.000999946
0.000999946
0.000999946
0.000999946
0.000999946
0.000999946
0.000999946
0.000999946
0.000999946
0.000999946
0.000999946
0.000999946
0.000999946
0.000999946
0.000999946
0.000999946
0.000999946
0.000999946
0.000999946
0.000999946
0.000999946
0.000999946
0.000999946
0.000999946
0.00099994642
1.4224817e-06
1.6784424e-06
1.0142001e-06
2.3552621e-06
2.8385955e-06
3.7819481e-06
4.3824533e-06
2.8780392e-06
1.3405745e-06
1.838194e-06
2.7649425e-06
7.4933927e-06
4.4822787e-05
0.00048048955
0.00099994934
0.00099994693
0.00099994603
0.00099994599
0.000999946
0.000999946
0.000999946
0.000999946
0.000999946
0.000999946
0.000999946
0.000999946
0.000999946
0.000999946
0.000999946
0.000999946
0.000999946
0.000999946
0.000999946
0.000999946
0.000999946
0.000999946
0.000999946
0.000999946
0.000999946
0.000999946
0.000999946
0.000999946
0.000999946
0.000999946
0.000999946
0.000999946
0.000999946
0.000999946
0.000999946
0.000999946
0.000999946
0.000999946
0.000999946
0.000999946
0.000999946
0.000999946
0.000999946
0.000999946
0.000999946
0.000999946
0.000999946
0.000999946
0.000999946
0.000999946
0.000999946
0.000999946
0.000999946
0.000999946
0.000999946
0.000999946
0.000999946
0.000999946
0.000999946
0.000999946
0.000999946
0.000999946
0.000999946
0.000999946
0.000999946
0.00099994642
2.6700919e-06
1.5254974e-06
1.2579747e-06
2.3749035e-06
2.9036735e-06
3.767573e-06
4.1556783e-06
4.6941468e-06
1.3241144e-06
1.8143661e-06
2.67127e-06
7.0554014e-06
3.8399555e-05
0.00037122727
0.00099994951
0.00099994706
0.00099994605
0.00099994599
0.000999946