/*--------------------------------*- C++ -*----------------------------------*\
| =========                 |                                                 |
| \\      /  F ield         | OpenFOAM: The Open Source CFD Toolbox           |
|  \\    /   O peration     | Version:  2406                                  |
|   \\  /    A nd           | Website:  www.openfoam.com                      |
|    \\/     M anipulation  |                                                 |
\*---------------------------------------------------------------------------*/
FoamFile
{
    version     2.0;
    format      ascii;
    arch        "LSB;label=32;scalar=64";
    class       volVectorField;
    location    "6e-05";
    object      U;
}
// * * * * * * * * * * * * * * * * * * * * * * * * * * * * * * * * * * * * * //

dimensions      [0 1 -1 0 0 0 0];

internalField   nonuniform List<vector> 
16000
(
(20.215046 -3.1075499e-21 -0.174474)
(20.157725 -9.6898512e-22 -0.11905124)
(20.171997 4.2860868e-24 -0.021222036)
(20.132338 -4.1228018e-23 -0.13872125)
(20.123811 -1.0184914e-21 -0.064530583)
(20.078865 1.1046409e-22 -0.14546027)
(20.055927 3.9099054e-22 -0.091255222)
(20.023848 2.0538489e-22 -0.087765452)
(20.010125 -9.6941588e-22 -0.036946956)
(20.002053 5.6415392e-22 -0.017171336)
(20.000418 1.8360901e-24 -0.0024309573)
(19.999976 -2.893244e-23 -0.00031893492)
(19.999988 8.9971322e-24 0.00020773124)
(19.999993 1.7169487e-25 4.0054405e-05)
(20 -1.0368328e-24 9.3163185e-06)
(20 3.4923469e-26 -1.3268585e-06)
(20 1.0297156e-26 -3.1330866e-07)
(20 -2.5472699e-28 -6.1942989e-08)
(20 -3.5263757e-29 6.3814425e-09)
(20 1.4635767e-28 1.7055089e-09)
(20 1.4323876e-29 1.9743649e-10)
(20 4.1491042e-31 -2.700535e-11)
(20 -2.0332388e-31 -7.4477082e-12)
(20 2.3140356e-32 -7.6641614e-13)
(20 5.2131966e-33 1.7807582e-12)
(20 1.0758289e-32 1.822554e-12)
(20 2.7817073e-33 -1.389301e-12)
(20 4.135259e-33 -3.3787967e-12)
(20 -2.0265324e-34 -1.3971358e-13)
(20 2.105124e-34 1.6317899e-12)
(20 0 -2.4773101e-12)
(20 1.809566e-33 2.4171589e-14)
(20 4.3751935e-33 1.397746e-12)
(20 -7.6034549e-33 2.6211986e-13)
(20 6.2576571e-33 -1.3865865e-12)
(20 -2.1757157e-33 -1.2221384e-12)
(20 3.364992e-34 3.5800756e-12)
(20 4.4039334e-34 -3.9139357e-13)
(20 3.6757512e-34 -1.71554e-12)
(20 1.5808672e-33 2.6507395e-12)
(20 4.3378601e-33 8.2491286e-13)
(20 -1.0065622e-33 6.4923755e-13)
(20 6.6051307e-33 -1.2619311e-12)
(20 1.9677038e-34 -3.047406e-12)
(20 2.9317654e-35 2.4496148e-12)
(20 4.7547668e-34 8.1405048e-13)
(20 -4.1618781e-33 5.2148342e-14)
(20 1.6554591e-34 -2.637823e-12)
(20 -4.0894846e-33 -1.683863e-12)
(20 9.0766272e-34 2.5776028e-12)
(20 2.4494136e-38 2.3110665e-12)
(20 -1.0093868e-33 -4.9860483e-13)
(20 3.0018845e-33 -1.3373255e-12)
(20 -7.2062697e-33 -2.6901419e-12)
(20 4.1531212e-33 -3.4399623e-12)
(20 -1.4529233e-32 5.261041e-12)
(20 -1.3165231e-33 3.8965994e-12)
(20 -3.9927829e-33 -3.7214858e-13)
(20 3.0332112e-33 -8.3488066e-13)
(20 -1.1281843e-32 -2.8001034e-12)
(20 2.1184018e-33 -2.5136802e-13)
(20 -5.0730084e-33 2.7774939e-12)
(20 -2.2087928e-33 2.9830522e-12)
(20 -1.6042668e-33 -2.4255197e-12)
(20 -9.3330378e-34 -9.0165247e-13)
(20 -3.3588613e-33 1.6728067e-12)
(20 4.5982743e-33 -1.1609103e-12)
(20 -2.9394575e-33 7.9346962e-13)
(20 5.4278605e-33 1.4827199e-13)
(20 0 -1.583914e-13)
(20 1.8465231e-33 1.2911165e-12)
(20 -1.4739797e-32 -2.4716135e-12)
(20 7.49508e-34 -1.4524918e-12)
(20 -2.718283e-33 1.0090621e-12)
(20 -1.1145528e-33 1.533929e-12)
(20 -9.9018191e-33 -4.7760884e-13)
(20 -7.5892806e-33 -2.4952652e-12)
(20 0 -5.3352808e-13)
(20 1.2945247e-33 9.195216e-13)
(20 1.7222598e-32 3.6533668e-13)
(20.15258 -8.2665464e-22 -0.33150761)
(20.175542 -1.0016101e-21 -0.39671898)
(20.165968 -6.5134982e-24 -0.1947898)
(20.13832 -1.1034225e-21 -0.32895778)
(20.12101 2.6990726e-21 -0.27287725)
(20.070829 1.7092326e-21 -0.39809029)
(20.047556 1.3517462e-21 -0.30277522)
(20.016594 3.0654293e-22 -0.27393493)
(20.006142 -2.7509521e-21 -0.13390457)
(20.000514 -1.632437e-21 -0.063708331)
(19.999983 -1.1711346e-21 -0.015556216)
(19.999889 1.4022864e-22 -0.0034158598)
(19.999988 5.7893252e-23 4.2653223e-05)
(19.999997 -9.4692464e-25 9.3638366e-05)
(20.000001 1.5666467e-24 4.7938552e-05)
(20 7.7121031e-28 4.1267503e-06)
(20 2.4931892e-26 2.3633965e-08)
(20 5.6985577e-27 -2.4550843e-07)
(20 3.0150914e-27 -3.026847e-08)
(20 -1.401856e-28 -8.0269993e-10)
(20 4.436484e-29 8.7135452e-10)
(20 5.0159139e-30 1.0692204e-10)
(20 0 -4.4234741e-13)
(20 -5.13821e-32 -1.7179933e-12)
(20 -2.576504e-32 5.9037858e-13)
(20 -3.7499277e-34 2.2590161e-12)
(20 4.9762706e-34 4.6883793e-13)
(20 -1.3586425e-33 -8.7217513e-13)
(20 2.6033375e-35 2.4359678e-13)
(20 -4.108231e-33 -6.0070184e-13)
(20 -8.394913e-33 -1.3465395e-12)
(20 3.6664749e-34 9.71318e-13)
(20 -1.1627881e-33 -1.1599452e-12)
(20 -2.0116836e-35 -1.9269307e-12)
(20 -1.0804937e-33 3.3356978e-13)
(20 -1.2948399e-35 3.0577286e-12)
(20 -5.6295747e-33 3.8296286e-12)
(20 -3.3902049e-33 -3.4392682e-12)
(20 3.728217e-33 -2.0743495e-13)
(20 -5.9988271e-34 2.603914e-12)
(20 1.8245406e-33 1.9672075e-13)
(20 9.2448152e-34 -2.0296682e-12)
(20 -5.3900137e-34 -6.3530723e-15)
(20 8.4068434e-34 3.5370093e-12)
(20 -9.887908e-34 -1.6035756e-12)
(20 -2.2593102e-33 -5.615892e-12)
(20 -8.794421e-34 -1.9484904e-13)
(20 1.0402238e-34 5.1804241e-13)
(20 2.921995e-33 1.8723173e-12)
(20 -1.0785683e-33 -1.1927541e-13)
(20 6.7756007e-33 -2.1636966e-12)
(20 1.7271895e-33 -1.83786e-13)
(20 7.2834587e-34 -2.123117e-13)
(20 4.793041e-34 5.1536003e-12)
(20 -1.0661048e-33 9.5086295e-13)
(20 3.2848047e-33 4.4152499e-13)
(20 2.0260855e-34 2.7440608e-12)
(20 0 -2.4464705e-12)
(20 -5.4500624e-33 -5.2821578e-12)
(20 6.0810762e-35 -1.887137e-12)
(20 -4.7307051e-33 2.6091486e-12)
(20 -1.4463225e-33 1.6275983e-12)
(20 -1.7182643e-33 -1.6847367e-12)
(20 -3.6436698e-33 -7.227953e-13)
(20 -3.0911613e-34 6.5575767e-13)
(20 1.1991145e-33 7.5514614e-13)
(20 -1.3385189e-33 1.9967735e-12)
(20 5.80597e-33 1.2260822e-12)
(20 -3.7107107e-33 -9.5850423e-13)
(20 6.3348024e-33 -1.46494e-12)
(20 -4.8384548e-33 2.6994564e-12)
(20 6.2308811e-34 1.6184569e-12)
(20 1.6304121e-33 -2.7133719e-12)
(20 1.0026196e-34 -1.4814708e-12)
(20 3.453811e-34 1.0114565e-12)
(20 1.4373078e-34 -2.0362613e-13)
(20 -3.2632512e-33 1.7761664e-13)
(20 4.0051696e-33 -2.2381696e-14)
(20 -3.3098863e-34 -1.5928512e-12)
(20 -6.7091564e-34 5.5898172e-13)
(20.046092 6.1338847e-22 -0.47717004)
(20.179169 1.4635361e-22 -0.72431713)
(20.161396 1.4467122e-22 -0.38876546)
(20.139791 -7.7362139e-22 -0.49001708)
(20.116966 -9.8900123e-23 -0.51676159)
(20.059642 -1.6989999e-21 -0.66908203)
(20.036584 2.7793883e-21 -0.52386293)
(20.004681 -5.0946163e-21 -0.47796218)
(19.998911 0 -0.24793268)
(19.996326 7.8433128e-24 -0.12430892)
(19.998573 -5.0370427e-24 -0.034721782)
(19.999525 3.3156642e-22 -0.0082543996)
(19.999956 -3.9181468e-23 -0.00040757363)
(20.000003 -2.7129938e-24 0.00013412666)
(20.000006 -4.5571126e-24 9.3892173e-05)
(20.000001 -7.0861141e-25 1.2846859e-05)
(20 8.6081781e-26 8.5306816e-07)
(20 7.3213546e-27 -4.0950314e-07)
(20 -2.4250666e-27 -7.6434525e-08)
(20 -5.1760415e-28 -6.4040921e-09)
(20 -1.8463935e-29 1.2622044e-09)
(20 4.1489157e-32 2.5361088e-10)
(20 1.298197e-34 1.7010576e-11)
(20 4.6263261e-32 -2.9262108e-12)
(20 1.6809765e-32 -2.3760973e-12)
(20 -4.0959008e-34 -8.6588005e-13)
(20 -7.1187488e-34 1.8459565e-13)
(20 -1.1310694e-34 1.3441844e-12)
(20 -1.8078084e-33 -1.0547184e-12)
(20 6.0047852e-33 -3.6339295e-13)
(20 7.5524161e-34 -8.0042608e-14)
(20 4.3071243e-33 2.8788267e-12)
(20 -2.4141631e-34 9.0850555e-13)
(20 -7.1007674e-35 -1.1629193e-12)
(20 5.3550129e-33 2.3823891e-12)
(20 -5.5199369e-34 -9.5265833e-13)
(20 4.8385987e-33 -3.8924009e-12)
(20 2.1123396e-33 -1.4919872e-12)
(20 1.345608e-33 1.1733134e-12)
(20 -1.4593317e-33 -5.3873296e-13)
(20 -2.33989e-34 9.6168738e-13)
(20 -6.0824726e-34 2.6617788e-12)
(20 -6.4507765e-34 -2.6437523e-12)
(20 -5.6571176e-34 -3.5187638e-13)
(20 -6.3629768e-34 -8.665693e-13)
(20 2.9932619e-34 -4.1226863e-12)
(20 -6.7739702e-33 4.9254407e-12)
(20 -9.6061304e-33 5.394684e-12)
(20 -8.8535379e-33 1.020023e-12)
(20 5.1098836e-34 -1.6202341e-12)
(20 6.7107236e-35 -4.0068085e-12)
(20 1.2144806e-35 -5.8742518e-13)
(20 3.0194305e-33 9.1710498e-13)
(20 5.3817146e-34 1.0840357e-12)
(20 1.7660156e-33 -3.44952e-12)
(20 -2.9373174e-33 7.3292792e-13)
(20 7.7074005e-33 7.6845416e-12)
(20 5.0048672e-34 -2.2316165e-12)
(20 3.7215619e-33 -5.3050589e-12)
(20 1.3049818e-34 -8.2755426e-14)
(20 -1.2734026e-33 -8.3234302e-13)
(20 2.0448824e-33 4.1518439e-13)
(20 8.9501406e-34 4.3746881e-13)
(20 -2.3168321e-33 -4.4698259e-14)
(20 1.3980853e-33 3.4129351e-13)
(20 3.7109328e-33 2.1289505e-12)
(20 7.2040077e-34 1.3631823e-12)
(20 -1.2679159e-32 -2.3062908e-12)
(20 1.1101e-32 2.9736762e-13)
(20 1.4368328e-34 3.230443e-13)
(20 1.5393574e-33 -1.0796284e-12)
(20 -1.5458025e-33 1.0056731e-12)
(20 5.9659136e-35 6.7950356e-13)
(20 4.9901735e-35 -5.4799853e-13)
(20 1.3012466e-33 1.8397043e-13)
(20 -6.3497182e-35 1.4103123e-13)
(20 6.7330623e-33 -5.8363131e-13)
(20 -4.687255e-35 -3.4297207e-13)
(20 1.1504665e-33 3.1727331e-13)
(20 2.8896392e-33 -1.4863597e-13)
(19.902803 1.6160099e-22 -0.60558182)
(20.171473 1.1601488e-22 -1.0282905)
(20.155587 -2.4901205e-23 -0.58438731)
(20.134885 7.9008666e-24 -0.65810887)
(20.106723 1.8192986e-22 -0.75566773)
(20.044998 -4.1386515e-22 -0.94138868)
(20.020781 -6.3495296e-21 -0.7654859)
(19.986675 -5.3396401e-22 -0.7064499)
(19.987359 5.2645624e-22 -0.38159693)
(19.989652 3.822334e-21 -0.19776791)
(19.996338 2.0443736e-21 -0.058317955)
(19.998939 -5.1397382e-23 -0.014521097)
(19.999903 8.7108858e-23 -0.00098964208)
(20.000009 2.5024749e-26 0.00017527453)
(20.000012 1.7344679e-26 0.00014948577)
(20.000002 -4.6740908e-27 2.3524093e-05)
(20 -1.4459924e-25 1.9404577e-06)
(20 8.9291774e-28 -6.2614997e-07)
(20 -3.7263217e-28 -1.3079069e-07)
(20 7.371119e-29 -1.3208705e-08)
(20 1.8166517e-29 1.8437238e-09)
(20 1.0417566e-31 4.2346171e-10)
(20 1.8967252e-30 3.2435745e-11)
(20 -6.3591848e-32 -5.5979903e-12)
(20 2.9109213e-32 -1.1776548e-12)
(20 -1.110518e-32 1.1256068e-12)
(20 -2.7354444e-34 -1.0479741e-12)
(20 -4.0824115e-33 -5.0905514e-13)
(20 -3.814375e-33 5.6966301e-18)
(20 -4.0171067e-34 1.4996703e-12)
(20 5.3548815e-33 9.2676075e-13)
(20 -9.1085308e-34 2.6837369e-13)
(20 2.3885473e-33 2.2141183e-12)
(20 4.836581e-33 -2.9336384e-13)
(20 1.6039279e-33 1.0266612e-13)
(20 1.7265915e-32 -5.0287969e-13)
(20 1.5779743e-34 -3.5622484e-12)
(20 1.3976441e-33 1.9061292e-12)
(20 3.3722748e-33 -2.2413377e-13)
(20 -3.5871484e-34 -2.1908854e-12)
(20 9.7744658e-34 -1.1018827e-12)
(20 8.9264618e-34 1.7487345e-12)
(20 -3.6870042e-33 1.5083735e-12)
(20 2.8639456e-36 -3.9026868e-12)
(20 -7.8131478e-33 -3.0412487e-12)
(20 3.0326205e-34 3.0765418e-12)
(20 -1.1210776e-33 5.7867336e-12)
(20 -1.926666e-32 4.4066192e-12)
(20 3.2798873e-34 -1.0178992e-12)
(20 -2.020491e-32 -6.8709136e-12)
(20 2.4388752e-33 -2.6213413e-12)
(20 2.0971225e-33 3.9870595e-12)
(20 -1.1054179e-33 3.3390692e-13)
(20 -2.3432362e-34 8.7015897e-14)
(20 -3.7744174e-33 -1.9714982e-12)
(20 -9.6976743e-34 -8.4518812e-13)
(20 -1.7336431e-33 5.6851231e-12)
(20 3.5370726e-34 5.0790023e-13)
(20 3.0007378e-34 7.1054855e-13)
(20 2.4613654e-33 -9.069817e-13)
(20 4.4739249e-33 -2.48587e-12)
(20 3.4122498e-35 2.1567034e-15)
(20 1.8365167e-33 -3.2824494e-13)
(20 2.6565577e-33 -1.3696443e-12)
(20 1.188945e-33 7.4169157e-13)
(20 2.471614e-33 2.094039e-12)
(20 9.0005847e-35 -2.0394689e-12)
(20 3.3110061e-33 -2.2316326e-12)
(20 1.7553423e-33 2.9866673e-12)
(20 1.2367404e-33 2.5961348e-12)
(20 -8.9066369e-35 -5.5859931e-13)
(20 -4.6879324e-35 -6.2679663e-13)
(20 3.3574313e-34 -4.0463055e-13)
(20 1.0889119e-33 -9.1085889e-13)
(20 4.0708751e-35 -1.691831e-12)
(20 1.5141678e-33 8.8925954e-13)
(20 -2.4151832e-33 1.7580242e-12)
(20 -4.857372e-33 -6.8336276e-13)
(20 1.2787657e-33 -9.9226089e-13)
(20 -1.5010433e-34 2.3563319e-13)
(19.720206 -1.0687313e-22 -0.74151078)
(20.158962 4.2214143e-22 -1.3345455)
(20.146621 0 -0.77173525)
(20.127019 2.361698e-23 -0.84767683)
(20.091235 -5.2432985e-21 -0.9871493)
(20.026004 -6.3953347e-21 -1.2053766)
(19.998674 -1.4547002e-20 -1.0261202)
(19.961746 -2.1815117e-21 -0.95892298)
(19.97129 2.4575161e-20 -0.53384601)
(19.980302 6.807461e-24 -0.28469111)
(19.993087 -2.41408e-21 -0.087625236)
(19.998053 -1.6756701e-21 -0.022729075)
(19.999808 -1.1789939e-23 -0.0018938106)
(20.000016 1.8209929e-23 0.00019441916)
(20.000021 4.0646084e-24 0.00021729481)
(20.000004 -1.1742036e-24 3.8097319e-05)
(20 -3.0062991e-25 3.6678693e-06)
(20 -2.1837603e-26 -8.7499787e-07)
(20 -5.9267885e-27 -2.0259431e-07)
(20 1.1151218e-27 -2.3612481e-08)
(20 -3.0729373e-29 2.4829167e-09)
(20 1.615005e-29 6.5549969e-10)
(20 6.7168032e-30 5.8311983e-11)
(20 -8.3645878e-32 -6.9426725e-12)
(20 -8.3607933e-33 -1.656333e-12)
(20 1.1821171e-32 -5.9347461e-13)
(20 -9.7866473e-34 -3.7953921e-12)
(20 3.6370248e-34 1.6006551e-12)
(20 -9.9067701e-34 2.3181833e-12)
(20 2.3068292e-33 -9.5901453e-13)
(20 -1.3540559e-33 2.1785462e-12)
(20 1.4424515e-33 5.1483714e-13)
(20 2.2146385e-33 1.1758466e-12)
(20 -4.9471511e-34 -1.5494742e-12)
(20 8.577355e-34 -1.0692658e-12)
(20 -4.7704983e-34 -9.1207241e-13)
(20 1.2361316e-34 -2.4970881e-12)
(20 9.19559e-33 2.6222038e-12)
(20 -5.644472e-34 -8.039103e-13)
(20 -2.2762724e-34 1.1335638e-12)
(20 1.3460125e-34 -9.9158309e-13)
(20 1.3830089e-32 -1.8549358e-12)
(20 5.1905695e-33 1.1094427e-12)
(20 7.3740726e-34 3.2800442e-13)
(20 -1.5336076e-33 3.6153673e-12)
(20 2.8015803e-33 1.5565988e-12)
(20 -4.4645345e-35 1.0889545e-12)
(20 3.2076749e-33 2.007676e-12)
(20 2.2696122e-33 -3.2295223e-12)
(20 5.9010929e-33 -3.1997285e-12)
(20 -1.8945513e-35 -2.307817e-12)
(20 9.1793008e-35 -9.4595302e-13)
(20 1.9415533e-33 1.7816971e-12)
(20 -1.7032521e-33 -1.7068224e-12)
(20 1.6022041e-33 -3.1222428e-14)
(20 -3.3756342e-33 5.7764823e-13)
(20 2.8010032e-34 2.2568081e-12)
(20 7.7873866e-34 9.5750702e-13)
(20 -7.0772707e-34 -2.3393536e-13)
(20 5.039562e-33 2.1896828e-12)
(20 4.1886791e-33 -1.1306639e-12)
(20 4.1354442e-33 -2.8015805e-12)
(20 1.1127312e-33 3.814673e-13)
(20 7.9524996e-34 2.9528814e-13)
(20 -1.4896785e-33 3.1434329e-13)
(20 -9.0305024e-34 1.1276622e-12)
(20 -7.4388595e-34 -8.8889583e-13)
(20 -1.5139302e-33 -7.0902183e-13)
(20 5.2652642e-34 7.4699775e-13)
(20 1.9224866e-33 8.2233399e-13)
(20 2.6644074e-33 -4.8695796e-13)
(20 6.5384845e-36 2.3368212e-13)
(20 -8.3193979e-34 1.1236207e-12)
(20 -1.7461108e-33 -5.483853e-13)
(20 2.5320781e-34 7.3964757e-14)
(20 8.2723865e-33 -1.1735944e-12)
(20 5.9755825e-33 -5.090667e-13)
(20 -1.0628083e-34 1.0528391e-12)
(20 1.1282877e-33 -7.2706789e-13)
(20 8.8064416e-35 2.0387603e-13)
(19.494155 -5.2232162e-23 -0.88072643)
(20.143487 3.094065e-22 -1.6607481)
(20.134113 -4.3752689e-22 -0.96137756)
(20.116112 -5.9391152e-23 -1.0627488)
(20.074027 -2.1119036e-23 -1.2122082)
(20.001078 7.8238118e-23 -1.4525609)
(19.968577 4.0764894e-23 -1.3119374)
(19.929083 -1.7632567e-20 -1.2343399)
(19.949852 -1.0734909e-20 -0.70440244)
(19.967466 1.5050045e-20 -0.38565841)
(19.988458 6.6587201e-21 -0.12327212)
(19.99673 -9.9282622e-22 -0.033195021)
(19.999647 -4.106449e-22 -0.0032117182)
(20.000019 4.7202601e-23 0.00017650038)
(20.000033 -7.1359812e-24 0.00029726911)
(20.000007 8.25147e-24 5.7219625e-05)
(20.000001 6.6556869e-26 6.24875e-06)
(20 2.7389094e-26 -1.1391302e-06)
(20 6.6264167e-28 -2.9397942e-07)
(20 -1.9842621e-27 -3.8682374e-08)
(20 -3.6073754e-31 3.0776247e-09)
(20 -6.2884591e-32 9.499469e-10)
(20 5.1395566e-33 9.7517809e-11)
(20 -1.2157513e-33 -7.3181466e-12)
(20 6.1289742e-32 -3.3060572e-12)
(20 5.995463e-33 -3.3466601e-14)
(20 2.0042765e-36 -3.1598143e-13)
(20 -4.5466334e-33 -5.0802161e-13)
(20 1.0744099e-33 1.4318235e-12)
(20 -8.312004e-34 -4.5355912e-13)
(20 9.5864016e-36 4.7992144e-13)
(20 -1.2958241e-35 2.6830112e-14)
(20 -2.5707078e-33 1.4477054e-12)
(20 1.1722014e-34 -3.817047e-13)
(20 4.9816251e-35 -1.0432724e-13)
(20 6.9954296e-34 1.5489029e-12)
(20 -6.1625545e-34 -3.3036731e-12)
(20 -5.159751e-33 -7.0485549e-13)
(20 9.8906486e-33 1.3884654e-12)
(20 -1.1820031e-32 -3.681063e-13)
(20 -1.6456569e-33 1.260488e-12)
(20 1.3916382e-32 3.1002461e-12)
(20 4.7784997e-34 5.0298294e-13)
(20 6.7892304e-33 -1.5649621e-12)
(20 -2.7985288e-33 2.1797374e-12)
(20 -1.3164074e-33 -1.050933e-12)
(20 2.5230177e-33 -2.6682826e-13)
(20 1.3942615e-33 1.6626574e-12)
(20 1.0100697e-33 -3.9524705e-12)
(20 6.0171317e-34 -2.1720562e-12)
(20 -3.7900523e-36 3.5244878e-13)
(20 1.4351055e-32 2.5603095e-12)
(20 -9.8636544e-34 5.633028e-13)
(20 1.3008902e-32 -4.3062087e-12)
(20 -2.601773e-33 9.1046887e-13)
(20 3.2064467e-33 4.5645499e-12)
(20 3.0804851e-33 5.9060094e-13)
(20 4.2056133e-33 -3.3814768e-12)
(20 -6.8751235e-34 1.6532452e-13)
(20 8.3994476e-33 4.4960637e-12)
(20 5.1472183e-33 9.0645619e-13)
(20 -4.0054951e-33 -2.6073574e-12)
(20 8.4497289e-33 -2.2573233e-12)
(20 -8.3380074e-34 -5.2274907e-13)
(20 -4.402702e-34 1.0441166e-12)
(20 1.4256662e-33 4.7553466e-14)
(20 -1.0996126e-33 -1.3590805e-12)
(20 -2.4122522e-33 9.7832799e-13)
(20 3.4308159e-35 8.1644257e-13)
(20 8.7807004e-34 -3.4985732e-15)
(20 7.9247552e-34 -1.0691982e-12)
(20 9.5411909e-34 1.006654e-12)
(20 3.1005503e-35 1.377028e-12)
(20 1.0359673e-33 -1.6458123e-12)
(20 5.1285101e-35 2.4473938e-13)
(20 -3.6720069e-33 1.0906228e-13)
(20 -1.8814621e-33 3.8043082e-13)
(20 1.1295964e-34 9.1224331e-13)
(20 -1.6927375e-33 -1.444116e-12)
(20 4.8803644e-34 -1.7179681e-13)
(19.226582 9.421674e-22 -1.0176616)
(20.122204 1.4389757e-21 -2.0082737)
(20.117625 2.0193786e-21 -1.1574514)
(20.100697 6.3198028e-21 -1.2932599)
(20.053928 9.569897e-21 -1.4419418)
(19.96917 1.060584e-20 -1.6968036)
(19.930284 -1.0760394e-22 -1.6149997)
(19.887548 -4.8543714e-23 -1.530886)
(19.922079 1.0466578e-20 -0.89283988)
(19.950356 1.8236603e-20 -0.50101963)
(19.982085 3.9023203e-22 -0.16566172)
(19.994836 -1.3310922e-22 -0.046140928)
(19.999392 -2.3606258e-22 -0.0050162096)
(20.000017 -4.6261922e-24 0.00010744414)
(20.000048 -1.3076865e-24 0.00038899404)
(20.000011 3.037424e-24 8.1300022e-05)
(20.000001 -4.6720083e-26 9.8648011e-06)
(20 3.9226261e-27 -1.4010045e-06)
(20 1.8791729e-27 -4.0585802e-07)
(20 -5.5596971e-27 -5.9284776e-08)
(20 3.8449271e-29 3.540906e-09)
(20 -3.2573956e-29 1.3097793e-09)
(20 6.947466e-34 1.542488e-10)
(20 -4.1104319e-32 -8.4539332e-12)
(20 -1.3235635e-31 -4.1306837e-12)
(20 -3.1973365e-32 -2.2174006e-12)
(20 2.2662163e-33 -2.3400919e-12)
(20 1.412309e-32 -2.6326043e-12)
(20 3.3917906e-33 3.1035314e-12)
(20 1.7692951e-33 2.77956e-12)
(20 -1.2813248e-34 -1.5577784e-12)
(20 1.3926936e-33 5.8473649e-13)
(20 -1.6009819e-34 4.4223605e-13)
(20 1.8053013e-33 -1.565134e-12)
(20 2.9742697e-34 -8.5225959e-13)
(20 -1.1669677e-33 2.2606585e-12)
(20 -1.2238981e-33 -8.1657936e-13)
(20 -4.7716091e-33 1.2139137e-12)
(20 -9.774599e-33 4.6913028e-12)
(20 8.7428676e-34 -2.2338623e-12)
(20 2.7978831e-33 3.6170587e-13)
(20 0 3.7801646e-12)
(20 5.7329224e-33 -1.9015422e-12)
(20 1.2756886e-33 -1.1751142e-12)
(20 -5.4695845e-34 3.0602159e-12)
(20 2.5891227e-33 -3.1888781e-12)
(20 7.8943408e-33 -2.0389153e-12)
(20 -1.8763544e-33 3.9387951e-13)
(20 5.5123646e-34 -2.3169452e-12)
(20 5.436151e-33 2.3024476e-12)
(20 1.0242832e-33 -2.4245512e-13)
(20 -2.4823072e-33 1.1049015e-12)
(20 6.6907293e-33 3.4532348e-12)
(20 -3.2888627e-33 -1.0512597e-12)
(20 3.4520658e-33 -3.5997641e-12)
(20 1.7875406e-33 -4.3909713e-12)
(20 1.7858469e-33 5.1636269e-13)
(20 -9.9695351e-34 3.3953555e-12)
(20 4.7756105e-33 -9.8217026e-14)
(20 5.1484752e-35 -6.9786751e-13)
(20 -1.0220832e-32 4.0785115e-12)
(20 2.7897356e-33 3.3169959e-12)
(20 -5.5568366e-33 -1.8928773e-12)
(20 -6.9515563e-33 -2.1937384e-12)
(20 7.0263201e-34 1.7145305e-14)
(20 -3.4943072e-33 7.8098294e-13)
(20 -3.5852042e-34 -1.5388673e-12)
(20 2.0409142e-33 -3.696194e-13)
(20 -1.2414143e-33 6.745654e-13)
(20 1.5116656e-33 6.0711585e-13)
(20 2.2484082e-34 -6.9390894e-14)
(20 -5.2530057e-33 -1.189256e-13)
(20 1.2171861e-33 -4.0495861e-13)
(20 -5.4503094e-34 -5.6223181e-13)
(20 3.5896251e-33 6.0229668e-13)
(20 4.1867373e-34 -3.0420789e-13)
(20 -4.687863e-33 1.709717e-13)
(20 1.7540484e-34 2.2980995e-14)
(20 -3.8078004e-34 9.0819725e-13)
(20 2.1962543e-34 -4.8575421e-13)
(18.923958 3.9797975e-21 -1.146516)
(20.094244 4.9682377e-22 -2.3741756)
(20.096019 2.3203199e-21 -1.3639804)
(20.080232 -1.4561685e-20 -1.5376832)
(20.028768 5.7781482e-21 -1.6810041)
(19.932088 -3.4664993e-20 -1.9407198)
(19.882956 9.2922733e-21 -1.9292152)
(19.835535 -2.2466737e-20 -1.8495937)
(19.886917 -1.3124229e-20 -1.0993324)
(19.928185 -1.0219923e-20 -0.6308482)
(19.973587 4.4191382e-21 -0.21505986)
(19.992224 2.1285899e-21 -0.06174938)
(19.99901 -3.2151482e-23 -0.0073756631)
(20.000006 -3.4147401e-23 -2.7128289e-05)
(20.000068 8.8794731e-24 0.00049166169)
(20.000016 -6.717467e-24 0.00011065981)
(20.000002 -6.435004e-26 1.4694117e-05)
(20 3.585458e-27 -1.6401207e-06)
(20 2.4008078e-26 -5.3864656e-07)
(20 4.0379617e-27 -8.6258325e-08)
(20 -2.6034627e-28 3.7733101e-09)
(20 6.3639362e-30 1.7354282e-09)
(20 -1.0644246e-29 2.27077e-10)
(20 1.6729919e-31 -1.1932536e-11)
(20 1.8647122e-34 -4.7658913e-12)
(20 1.8596125e-32 1.0653173e-12)
(20 -1.092422e-33 2.6127705e-12)
(20 2.626531e-33 6.9420613e-13)
(20 7.7464944e-33 -1.2234448e-12)
(20 -2.438596e-33 1.1607693e-12)
(20 -2.881394e-33 -5.457166e-13)
(20 1.2475997e-33 -2.1014879e-12)
(20 -1.3319988e-33 7.2117418e-13)
(20 6.0195211e-34 1.9565345e-12)
(20 6.5836063e-35 -1.3103928e-12)
(20 -1.720775e-33 -7.968849e-13)
(20 -6.305316e-33 -2.5697696e-13)
(20 3.5443364e-33 -1.4000503e-13)
(20 -1.2579598e-33 5.9243783e-13)
(20 3.1710009e-33 -2.3668179e-12)
(20 1.5293238e-33 -6.4663563e-13)
(20 6.0720957e-33 2.6953522e-12)
(20 1.3252488e-33 8.9606732e-14)
(20 3.8565268e-33 2.2083743e-12)
(20 6.1401659e-34 4.9999316e-12)
(20 2.6674431e-33 -3.0381758e-12)
(20 2.0443823e-33 -3.5081273e-12)
(20 8.4022632e-33 4.811413e-12)
(20 6.9334771e-33 -5.5733486e-14)
(20 3.758954e-33 -4.7638208e-12)
(20 4.7692424e-33 -3.8335984e-12)
(20 1.1996588e-33 -5.255518e-13)
(20 -6.3822857e-33 3.6887154e-12)
(20 5.3661238e-33 1.7447703e-12)
(20 -2.3918609e-33 -1.0494564e-12)
(20 3.0457632e-33 -3.3161324e-12)
(20 -7.8050567e-33 -1.3576963e-12)
(20 2.2158551e-33 2.1316603e-12)
(20 -5.4072917e-34 6.8009005e-13)
(20 3.2712165e-33 -2.0207378e-12)
(20 3.1628953e-35 1.8077389e-13)
(20 -9.4123236e-33 1.4688842e-12)
(20 2.6661087e-33 -1.944688e-12)
(20 6.2869853e-33 2.3327757e-12)
(20 -5.4510831e-34 1.425396e-12)
(20 1.0718101e-33 -8.0851208e-13)
(20 9.1563021e-34 8.8761754e-13)
(20 2.059228e-34 1.6479865e-12)
(20 5.6516974e-33 -1.6390219e-12)
(20 -1.1540012e-33 1.0784469e-12)
(20 -2.0329261e-34 2.6005653e-12)
(20 6.4689054e-34 -9.9140586e-13)
(20 -4.4872809e-34 -1.0706687e-12)
(20 3.7912825e-33 -8.5453863e-13)
(20 -3.8479355e-34 -2.6453933e-14)
(20 -2.7506757e-35 1.6422701e-13)
(20 3.8328773e-33 -4.3280475e-13)
(20 -1.2628255e-33 -1.2577288e-13)
(20 -1.1780822e-34 5.6192074e-13)
(20 -3.9211418e-33 -5.2976487e-14)
(18.595856 -3.1601275e-21 -1.2629085)
(20.059866 -4.7609423e-21 -2.7564255)
(20.068823 -2.9959023e-21 -1.5841623)
(20.054684 -8.2566739e-22 -1.7975945)
(19.997991 -5.5158979e-22 -1.928698)
(19.889404 -2.5324926e-20 -2.1885377)
(19.825754 1.2670493e-20 -2.2573356)
(19.771861 -1.1125748e-20 -2.1884695)
(19.843235 -2.7758129e-20 -1.3241316)
(19.900041 -1.0556543e-21 -0.77546211)
(19.962522 5.4564829e-22 -0.27178273)
(19.988716 -2.0862546e-22 -0.080212365)
(19.998464 4.1355706e-23 -0.010360326)
(19.999979 -5.7762272e-23 -0.00024218331)
(20.000093 8.2038073e-24 0.00060433867)
(20.000024 4.2469923e-24 0.00014559643)
(20.000003 -1.7941868e-24 2.091747e-05)
(20 -1.7873313e-26 -1.8339713e-06)
(20 -1.2733797e-27 -6.9255565e-07)
(20 4.8350431e-27 -1.2042039e-07)
(20 -1.5019809e-28 3.6603525e-09)
(20 4.6063027e-29 2.2249043e-09)
(20 -1.1777326e-29 3.2060051e-10)
(20 -3.1194969e-31 -1.057966e-11)
(20 -9.9910991e-32 -7.060519e-12)
(20 1.6136612e-32 -8.7445327e-13)
(20 4.2012344e-34 1.2167743e-12)
(20 2.3087097e-34 5.8730269e-13)
(20 3.2031641e-34 8.2441679e-13)
(20 0 -2.4618935e-13)
(20 1.4546852e-33 -5.4282188e-13)
(20 6.7463687e-35 1.1293202e-12)
(20 -2.3079945e-33 8.2166494e-13)
(20 -2.2447334e-34 -2.4827622e-13)
(20 -1.2559669e-33 -2.6584319e-13)
(20 1.0234946e-33 -5.6678678e-13)
(20 1.813446e-33 1.3286833e-12)
(20 -6.9242497e-35 -1.5963535e-12)
(20 7.6025482e-34 -3.5316161e-13)
(20 -4.4336942e-34 -7.3857151e-13)
(20 9.1147845e-34 -4.9338821e-12)
(20 2.6055051e-33 7.9406181e-13)
(20 4.2068493e-34 2.7533315e-12)
(20 -1.964734e-33 1.8357144e-12)
(20 -1.6329863e-33 1.6886419e-12)
(20 4.6108963e-33 1.4006202e-12)
(20 2.3914212e-33 -2.58181e-12)
(20 7.8408538e-34 2.06349e-12)
(20 4.1431785e-33 4.4515014e-12)
(20 -6.1893662e-33 -4.8182604e-12)
(20 -1.8403595e-33 -3.0914949e-12)
(20 1.4175727e-34 1.6028387e-12)
(20 5.8555e-33 -1.7900404e-12)
(20 3.6094548e-34 5.6214737e-14)
(20 8.2496967e-33 3.1606445e-12)
(20 -1.7352758e-32 1.3391624e-12)
(20 4.8609775e-33 -1.1575907e-12)
(20 -1.1955371e-32 -2.8705344e-12)
(20 -6.9702592e-33 -2.5224629e-12)
(20 4.8392628e-33 -2.4807997e-12)
(20 -5.903876e-34 -8.9311086e-13)
(20 5.0816833e-34 2.1992599e-12)
(20 4.7829208e-33 -2.0361809e-13)
(20 -1.0524825e-33 -1.1008523e-12)
(20 3.8666956e-33 -7.4412675e-13)
(20 -6.5431726e-33 -2.0483686e-13)
(20 -1.0698871e-34 -1.8131764e-13)
(20 2.0576882e-33 7.2894291e-13)
(20 -1.8796165e-34 -5.2722553e-14)
(20 -8.2064143e-34 8.9158763e-13)
(20 -3.9883041e-33 2.7301515e-12)
(20 -4.0204055e-33 -5.1511526e-13)
(20 1.2805122e-33 7.3356606e-13)
(20 4.9808075e-33 -3.8910372e-14)
(20 1.6702884e-33 1.4899519e-13)
(20 -8.225767e-34 9.4916975e-13)
(20 7.3253879e-34 -1.7965246e-12)
(20 0 -8.631885e-13)
(20 7.0545659e-33 6.6651884e-13)
(20 0 4.6337125e-14)
(18.252683 4.5457992e-21 -1.3625707)
(20.019471 5.7732403e-22 -3.1542777)
(20.034771 4.5480717e-21 -1.8210226)
(20.022968 -1.0361542e-20 -2.0751476)
(19.960545 6.9386693e-21 -2.1878319)
(19.840002 -1.4841642e-20 -2.441978)
(19.757592 3.7178129e-22 -2.6012403)
(19.694732 -1.2479484e-20 -2.5477479)
(19.789636 -3.4890568e-23 -1.5679169)
(19.86482 2.8507889e-23 -0.93539002)
(19.948347 2.0120939e-20 -0.33623565)
(19.984096 3.335657e-21 -0.10174641)
(19.997702 -1.2055766e-21 -0.014044832)
(19.999931 -7.0893724e-23 -0.00055335043)
(20.000124 8.0291382e-25 0.00072603656)
(20.000034 -9.6106028e-24 0.0001864128)
(20.000005 -1.0524704e-25 2.8714129e-05)
(20 3.4215736e-26 -1.9583426e-06)
(20 -1.6106218e-26 -8.6768979e-07)
(20 -6.0433065e-27 -1.6251241e-07)
(20 7.0245463e-28 3.0830437e-09)
(20 -1.2781542e-29 2.7778678e-09)
(20 3.3664965e-29 4.3819667e-10)
(20 4.4936032e-31 -7.942953e-12)
(20 1.0252294e-31 -5.2359941e-12)
(20 7.5340254e-32 -1.1039953e-12)
(20 8.5876527e-34 -7.6623915e-13)
(20 -5.3597841e-34 -1.0304798e-12)
(20 -1.8098139e-33 7.3778638e-13)
(20 3.5281511e-33 5.4496732e-13)
(20 -3.3164638e-34 -6.7524969e-13)
(20 2.3569819e-34 6.7797788e-16)
(20 1.097059e-33 3.5817388e-13)
(20 -2.1157979e-34 -8.5571099e-13)
(20 -1.0161391e-33 1.9599234e-13)
(20 4.0835671e-33 1.282711e-12)
(20 7.2229745e-34 2.7537877e-13)
(20 3.4782146e-33 -4.02771e-13)
(20 9.6913071e-34 -2.2182967e-12)
(20 4.7882221e-33 -2.3736849e-12)
(20 1.557532e-34 -1.2701235e-12)
(20 4.5702833e-34 -1.658349e-12)
(20 1.245459e-33 -3.6060991e-13)
(20 5.9531732e-33 2.6443015e-12)
(20 -4.3233665e-35 1.8394544e-12)
(20 -4.4920221e-35 7.3518723e-13)
(20 -2.6081224e-33 -2.1515991e-12)
(20 1.011057e-33 1.8871334e-12)
(20 6.1338183e-34 3.4742636e-12)
(20 0 -2.2364181e-12)
(20 5.5810334e-34 -1.2082348e-12)
(20 -1.131701e-33 9.0428717e-13)
(20 -1.2992973e-33 2.4088585e-13)
(20 3.5423829e-33 -1.872166e-12)
(20 1.9962961e-33 2.3936679e-12)
(20 1.2331848e-32 6.6837323e-12)
(20 -3.6744512e-33 1.3295564e-12)
(20 4.5771714e-33 -5.0978649e-12)
(20 -4.6137062e-34 -5.3696503e-12)
(20 1.6258624e-33 -2.4347424e-12)
(20 2.3354344e-33 6.3420841e-13)
(20 -3.2862455e-34 2.5558932e-12)
(20 -5.2600999e-33 -9.8012945e-13)
(20 -3.2077152e-34 -3.9048934e-12)
(20 -1.0999414e-32 3.5587136e-12)
(20 -1.4910097e-33 3.7745718e-12)
(20 -3.1160429e-33 -2.4904025e-12)
(20 3.5801036e-33 -1.9580653e-12)
(20 -2.7526679e-33 -1.545685e-12)
(20 1.2450446e-34 -1.6323065e-12)
(20 3.6788886e-33 1.1793821e-12)
(20 2.530136e-33 2.6762345e-12)
(20 -5.8943582e-34 7.5658976e-14)
(20 4.1370947e-33 -7.5494353e-13)
(20 2.0408771e-33 3.84598e-13)
(20 7.9964199e-34 -6.3672304e-14)
(20 2.0520341e-33 4.0954299e-13)
(20 -6.6103906e-33 -1.2523608e-12)
(20 -4.8518736e-33 3.32661e-13)
(20 1.2537536e-33 1.8695833e-13)
(17.913285 6.5313796e-21 -1.4391896)
(19.975519 7.485246e-22 -3.5637823)
(19.992491 5.8321554e-22 -2.0807781)
(19.984393 -1.0189866e-21 -2.3709419)
(19.915642 -6.1861374e-22 -2.4610446)
(19.783047 1.3402817e-21 -2.7029764)
(19.67724 -2.6254151e-21 -2.9615572)
(19.602211 -2.4454633e-21 -2.9276487)
(19.724426 2.8647411e-21 -1.8319488)
(19.821177 -6.1413753e-20 -1.1114538)
(19.930398 -1.5164364e-21 -0.40894323)
(19.978094 9.698255e-21 -0.126606)
(19.996663 1.4038935e-21 -0.018512085)
(19.999852 8.4749327e-24 -0.00097734081)
(20.000161 1.8436753e-23 0.00085573257)
(20.000046 4.9055258e-25 0.00023345723)
(20.000007 -1.5362031e-24 3.8262352e-05)
(20 -5.2160443e-26 -1.9875635e-06)
(20 1.5048324e-27 -1.0642002e-06)
(20 -7.3378035e-27 -2.131761e-07)
(20 1.010671e-30 1.907937e-09)
(20 -5.2305909e-29 3.3902331e-09)
(20 -1.7075835e-30 5.7960622e-10)
(20 6.5397477e-32 -6.4920871e-12)
(20 -1.2720185e-31 -7.852115e-12)
(20 -3.4072969e-32 -4.2693761e-13)
(20 2.2200405e-35 1.7041986e-12)
(20 1.2210401e-33 -9.3841887e-13)
(20 2.6434386e-34 -1.3489949e-12)
(20 -1.0682469e-33 1.1146018e-12)
(20 -4.2756842e-34 5.3475896e-13)
(20 -3.4533051e-33 -1.3725112e-12)
(20 3.7397145e-35 6.3409362e-13)
(20 2.762729e-34 1.021367e-12)
(20 -2.6820764e-33 -1.6232565e-12)
(20 -6.4031855e-33 -6.3611392e-13)
(20 6.0880567e-33 2.6142608e-12)
(20 1.8689419e-33 -6.3146337e-13)
(20 7.2487239e-33 -3.3096191e-12)
(20 1.6192354e-33 -2.6566759e-13)
(20 2.5899599e-33 1.6241174e-13)
(20 1.9285476e-33 1.0857741e-12)