/*--------------------------------*- C++ -*----------------------------------*\
| =========                 |                                                 |
| \\      /  F ield         | OpenFOAM: The Open Source CFD Toolbox           |
|  \\    /   O peration     | Version:  2406                                  |
|   \\  /    A nd           | Website:  www.openfoam.com                      |
|    \\/     M anipulation  |                                                 |
\*---------------------------------------------------------------------------*/
FoamFile
{
    version     2.0;
    format      ascii;
    arch        "LSB;label=32;scalar=64";
    class       volVectorField;
    location    "4e-05";
    object      U;
}
// * * * * * * * * * * * * * * * * * * * * * * * * * * * * * * * * * * * * * //

dimensions      [0 1 -1 0 0 0 0];

internalField   nonuniform List<vector> 
16000
(
(20.140771 8.4688521e-22 -0.12246664)
(20.094328 4.0633212e-21 -0.1199177)
(20.102192 -2.3612524e-23 -0.070134015)
(20.050076 -1.2065248e-22 -0.16209966)
(20.035707 9.6219674e-22 -0.06887337)
(20.011405 -1.5112773e-21 -0.068007649)
(20.004377 6.3012056e-22 -0.019131786)
(20.000507 7.1634091e-23 -0.0082336054)
(20.000084 -5.8272284e-23 -0.00015545541)
(19.999971 7.9007075e-24 1.2375731e-05)
(19.999995 -2.4477459e-26 9.6932105e-05)
(19.999998 6.4089144e-25 9.3213064e-06)
(20 2.7725356e-25 9.3893175e-07)
(20 -2.2685927e-27 -6.0574361e-07)
(20 9.8508047e-27 -7.8673522e-08)
(20 1.8526172e-27 -2.3427577e-09)
(20 -1.1546479e-28 2.5820259e-09)
(20 1.5791079e-30 3.0157124e-10)
(20 -9.0119965e-31 -1.2914334e-11)
(20 -8.9879458e-31 -6.7974303e-12)
(20 -5.1144649e-32 5.7092438e-13)
(20 1.8905369e-33 -1.4362622e-13)
(20 -6.2167373e-33 -1.7716317e-12)
(20 1.5877953e-33 -1.5921673e-13)
(20 2.2744581e-33 1.1909264e-12)
(20 6.7863842e-33 1.0166722e-12)
(20 -3.9242614e-34 -8.5876796e-13)
(20 8.8813466e-33 -2.3419677e-12)
(20 -8.4819194e-35 2.8964051e-13)
(20 1.5680791e-34 7.2770176e-13)
(20 0 -1.6807657e-12)
(20 4.013543e-33 1.1447925e-12)
(20 -9.4720036e-33 9.2021693e-13)
(20 7.15322e-33 6.6494163e-13)
(20 -6.3736522e-33 -1.2313615e-12)
(20 1.2662462e-33 -1.6956863e-12)
(20 -6.4964796e-33 2.4604167e-12)
(20 6.4931698e-34 -4.5717046e-14)
(20 -3.3880451e-33 -1.460396e-12)
(20 8.0927317e-33 1.6894096e-12)
(20 3.8509468e-35 1.1820669e-12)
(20 -1.6165119e-33 3.3982166e-13)
(20 -4.5422937e-33 -1.6761762e-12)
(20 -2.291291e-35 -3.1493172e-12)
(20 2.8272003e-34 2.1792591e-12)
(20 -4.1960176e-34 1.6361066e-12)
(20 -1.5127572e-33 -1.9941806e-13)
(20 -4.4701436e-34 -1.3119371e-12)
(20 -1.3015784e-33 -6.2321007e-13)
(20 1.1705107e-33 1.0703079e-12)
(20 7.2300723e-34 1.2237095e-12)
(20 -6.1184084e-34 -1.1454173e-13)
(20 1.6532418e-33 -5.5905232e-13)
(20 -8.8550923e-33 -1.1381721e-12)
(20 5.095078e-33 -1.8798729e-12)
(20 -1.494461e-32 1.9587843e-12)
(20 -1.7177874e-33 1.7491135e-12)
(20 -5.7050061e-34 1.6423044e-13)
(20 3.0318911e-33 -1.4659651e-13)
(20 -8.655366e-33 -1.4635658e-12)
(20 1.4398739e-33 -2.5046528e-13)
(20 -2.7899596e-33 1.3819709e-12)
(20 -2.34621e-33 1.2204403e-12)
(20 -1.3758394e-33 -1.0424394e-12)
(20 -2.0647121e-33 -2.5334461e-13)
(20 -1.9046287e-33 9.6865116e-13)
(20 2.2053461e-33 -6.6157925e-13)
(20 -2.808791e-33 1.4773865e-13)
(20 4.3838873e-33 1.8860231e-13)
(20 0 6.7614192e-15)
(20 1.2829468e-33 6.4036843e-13)
(20 -8.0167523e-33 -1.0593264e-12)
(20 6.7012226e-34 -7.7772086e-13)
(20 -7.7147277e-34 3.803631e-13)
(20 9.2674229e-35 5.6124064e-13)
(20 -6.0567559e-33 -1.429203e-13)
(20 -5.6916779e-33 -1.0292641e-12)
(20 0 -2.7878692e-13)
(20 1.0122684e-33 3.3653432e-13)
(20 1.07167e-32 2.0898951e-13)
(20.08715 1.2299013e-21 -0.26544449)
(20.092449 3.7266787e-21 -0.333505)
(20.096631 -6.4563538e-22 -0.27515718)
(20.039879 2.2992843e-21 -0.4468468)
(20.027047 -5.048994e-21 -0.2404831)
(20.005333 -8.9998517e-21 -0.21586426)
(20.001684 2.3060581e-21 -0.077853995)
(19.999623 1.248758e-22 -0.033167686)
(19.999898 -3.2774117e-22 -0.0050071103)
(19.999956 -6.5188064e-23 -0.00081805498)
(20.000001 4.3146528e-24 0.00018826563)
(20.000001 -1.4428174e-24 4.8843401e-05)
(20.000001 -3.2408088e-24 1.3509621e-05)
(20 -5.0720158e-26 -1.5937229e-07)
(20 -4.216072e-27 -2.1815796e-07)
(20 -6.2854628e-30 -6.2723168e-08)
(20 -2.2816417e-28 -7.8637158e-10)
(20 -1.4774314e-29 8.1940246e-10)
(20 -1.8954349e-29 1.6339689e-10)
(20 4.9566638e-31 -6.1048493e-13)
(20 -1.5963658e-31 -2.4341575e-12)
(20 -1.3025969e-32 8.0552499e-13)
(20 0 6.8887734e-13)
(20 -2.5038597e-33 2.2719093e-13)
(20 1.3441303e-33 5.576197e-13)
(20 -3.9932432e-33 1.3438802e-12)
(20 -5.2016839e-33 1.5596486e-13)
(20 1.0901611e-33 -7.2850971e-13)
(20 -2.4320082e-34 2.4525036e-13)
(20 -1.6476559e-33 2.4743645e-14)
(20 5.3606e-33 -1.787058e-12)
(20 -7.4307289e-34 1.0622257e-12)
(20 8.8035796e-34 1.0615752e-12)
(20 1.4411445e-34 -1.3396197e-12)
(20 1.6370442e-33 -2.7394892e-13)
(20 7.1821112e-35 1.120406e-12)
(20 -5.3298239e-33 2.0176581e-12)
(20 -3.6677069e-33 -1.5060429e-12)
(20 4.7184294e-34 -4.6049305e-13)
(20 -1.03967e-33 9.1449736e-13)
(20 5.8264456e-34 4.7036277e-13)
(20 1.3566917e-33 -1.1395947e-12)
(20 1.9346897e-35 2.4158761e-13)
(20 -9.7685521e-33 2.7705347e-12)
(20 4.3797496e-34 -9.5328751e-13)
(20 -1.4046002e-32 -3.844878e-12)
(20 -1.1265151e-33 -2.3795686e-13)
(20 -1.766338e-34 3.7926643e-13)
(20 2.781894e-33 8.3548929e-13)
(20 1.4727195e-33 1.3220681e-13)
(20 6.0020489e-33 -6.8821654e-13)
(20 -2.6187724e-34 1.495553e-13)
(20 -1.6526693e-34 -2.4374539e-13)
(20 6.1404845e-34 2.4939161e-12)
(20 -1.2483688e-33 1.4097937e-13)
(20 5.6795089e-34 -5.5181853e-13)
(20 4.2461173e-34 1.2657196e-12)
(20 0 -6.8963937e-13)
(20 -2.1139395e-33 -2.0092804e-12)
(20 8.9413375e-35 -9.1585669e-13)
(20 -3.0923323e-33 8.8033661e-13)
(20 -1.9029531e-33 9.7846803e-13)
(20 -1.1282509e-33 -8.2358921e-13)
(20 -3.5041765e-33 -6.1190781e-13)
(20 -7.2708758e-34 4.4706328e-13)
(20 8.557548e-34 2.7126141e-13)
(20 -1.5054726e-34 6.5550841e-13)
(20 5.0534769e-33 5.6632314e-13)
(20 -3.9311497e-33 -5.974827e-14)
(20 3.6042719e-33 -3.5365934e-13)
(20 -2.7575689e-33 9.8125867e-13)
(20 9.9022797e-34 6.0896565e-13)
(20 1.3926087e-33 -1.2471534e-12)
(20 6.8533188e-35 -6.4329996e-13)
(20 4.2587105e-34 4.5121432e-13)
(20 1.1148854e-34 -7.4962608e-14)
(20 -2.0447155e-33 6.5226015e-14)
(20 2.7532682e-33 -2.7245589e-14)
(20 -1.1459435e-33 -5.7427391e-13)
(20 7.1238876e-35 1.9591443e-13)
(19.983669 -2.3991143e-21 -0.42130486)
(20.086532 -4.9054008e-22 -0.54151948)
(20.086578 2.1107162e-22 -0.48696364)
(20.023327 9.5985507e-22 -0.76751585)
(20.015187 4.5468725e-22 -0.41679913)
(19.9946 5.9742563e-21 -0.37901047)
(19.996406 4.6531256e-21 -0.14764692)
(19.997185 -2.5520906e-21 -0.065922063)
(19.999338 0 -0.012051101)
(19.999869 6.9575655e-26 -0.0021290235)
(20.000008 2.4947702e-26 0.00024110249)
(20.000006 -2.3672097e-24 9.1771278e-05)
(20.000002 1.3575676e-24 2.9352889e-05)
(20 2.7239089e-25 6.826202e-07)
(20 2.9174773e-28 -3.1549298e-07)
(20 6.3774335e-27 -1.2462273e-07)
(20 -6.902451e-28 -5.7185971e-09)
(20 7.2105411e-31 1.0066365e-09)
(20 1.2626839e-29 3.1393456e-10)
(20 1.7014302e-30 1.0346101e-11)
(20 4.4224041e-32 -1.7882907e-12)
(20 -1.9930871e-34 1.937455e-12)
(20 3.1577443e-35 1.8675772e-12)
(20 6.098387e-34 -4.5665689e-13)
(20 7.1714522e-33 -1.4077445e-12)
(20 -2.5142147e-34 -4.487948e-13)
(20 -5.3112499e-34 1.6502719e-14)
(20 3.9337944e-35 7.1901759e-13)
(20 7.3575002e-35 -6.9125727e-13)
(20 -6.7817846e-34 -3.1279703e-13)
(20 1.4776118e-33 2.0092951e-13)
(20 -8.8831425e-33 2.0421265e-12)
(20 3.3297453e-34 9.3848822e-13)
(20 1.4599271e-33 -5.8730086e-13)
(20 9.7787327e-33 1.0962679e-12)
(20 -9.3058066e-34 -2.5055472e-13)
(20 1.809096e-32 -2.148336e-12)
(20 -3.7169595e-34 -1.430762e-12)
(20 2.0277417e-34 1.2722055e-13)
(20 2.4384967e-33 -5.2712351e-13)
(20 1.7444085e-33 9.0168721e-13)
(20 -9.3528582e-34 1.6348464e-12)
(20 -8.8650266e-34 -6.0989539e-13)
(20 7.0229595e-34 -2.5205661e-13)
(20 -2.004775e-33 -1.1798718e-12)
(20 -7.6203061e-34 -1.914096e-12)
(20 -6.3122599e-33 2.4754223e-12)
(20 -7.1801485e-33 2.4018151e-12)
(20 -5.5067071e-33 5.4360883e-13)
(20 2.4587726e-34 -8.2219412e-13)
(20 2.3154562e-34 -2.6811414e-12)
(20 1.0147655e-35 -1.1347671e-14)
(20 4.6157956e-33 1.2124623e-12)
(20 1.4173339e-33 6.4842597e-13)
(20 3.208486e-33 -1.4598158e-12)
(20 -3.8534018e-33 2.4898236e-13)
(20 8.3179242e-33 3.3845088e-12)
(20 1.9314601e-33 -1.5818254e-12)
(20 4.3625216e-33 -2.4850465e-12)
(20 1.1428834e-34 7.408334e-13)
(20 -2.7602046e-33 -5.6204121e-13)
(20 2.1743572e-33 -1.7634996e-13)
(20 -3.54319e-34 1.9431018e-13)
(20 -1.7480656e-33 2.9332136e-14)
(20 1.3569715e-33 1.0324785e-13)
(20 3.6906907e-33 9.0985392e-13)
(20 6.5503784e-34 6.9824188e-13)
(20 -8.9607678e-33 -1.2494155e-12)
(20 8.2643602e-33 5.3976328e-14)
(20 8.3315726e-35 6.987902e-13)
(20 1.0499064e-33 -5.6396115e-13)
(20 -6.7235385e-34 1.2629098e-13)
(20 3.1970738e-35 2.1701579e-13)
(20 2.1970064e-35 -1.5257829e-13)
(20 8.4805488e-34 2.4990135e-13)
(20 -2.1036209e-35 9.410355e-14)
(20 2.9333452e-33 -2.4311444e-13)
(20 -6.575967e-35 -7.2457199e-14)
(20 8.2795606e-34 1.7372188e-13)
(20 1.6812342e-33 -1.3929019e-13)
(19.838064 -2.7942052e-21 -0.55882208)
(20.079046 -4.6637282e-22 -0.74751231)
(20.070928 8.4109208e-23 -0.70490368)
(20.000589 -4.3942032e-23 -1.0818543)
(19.998557 -5.8555638e-22 -0.61473504)
(19.978468 8.131232e-22 -0.56411192)
(19.988438 -1.1838574e-20 -0.22849295)
(19.993545 -3.2245145e-22 -0.10457587)
(19.998507 9.2478839e-23 -0.020332389)
(19.999731 2.1626069e-22 -0.0037618327)
(20.000018 1.0035914e-23 0.00031658559)
(20.000013 3.0185279e-25 0.00014083224)
(20.000004 -2.5163769e-24 4.8461674e-05)
(20 -6.5215821e-29 1.6430979e-06)
(20 -1.3468071e-28 -4.3621252e-07)
(20 3.2252422e-29 -1.998198e-07)
(20 1.0826251e-27 -1.1529786e-08)
(20 1.3891255e-30 1.3670334e-09)
(20 1.8896522e-30 5.0505428e-10)
(20 -2.313697e-31 2.5171915e-11)
(20 -5.0714598e-32 -4.3129091e-12)
(20 -3.8096651e-34 -2.3749501e-12)
(20 1.4338641e-33 1.1880621e-12)
(20 -3.2913455e-33 3.0897262e-14)
(20 3.0705206e-33 -1.9332155e-13)
(20 -6.7960114e-34 1.6157698e-12)
(20 -2.0410104e-34 -8.5459967e-13)
(20 -3.7454925e-33 -1.0159667e-12)
(20 1.0156906e-33 3.3583645e-13)
(20 -3.3198084e-34 5.2000378e-13)
(20 1.6620058e-33 3.2342303e-13)
(20 4.8580172e-34 -4.346525e-14)
(20 -6.153231e-33 1.7016367e-12)
(20 -3.041037e-33 -1.5532341e-13)
(20 2.2148583e-33 5.8629399e-13)
(20 -7.1307452e-33 -8.4168175e-14)
(20 1.9892968e-34 -2.5507893e-12)
(20 2.1273814e-33 1.1830229e-12)
(20 -2.6418972e-33 -6.5552575e-13)
(20 2.8456571e-33 -1.2098986e-12)
(20 -6.6099865e-34 -7.2689928e-13)
(20 3.1373974e-33 1.0526182e-12)
(20 -1.7544269e-33 7.3714729e-13)
(20 7.105234e-34 -1.9810737e-12)
(20 -1.2141022e-32 -9.1326069e-13)
(20 1.8886984e-33 1.9729105e-12)
(20 -1.5342613e-33 2.6257671e-12)
(20 -1.4963037e-32 1.7810133e-12)
(20 1.2038734e-33 -2.5024639e-13)
(20 -2.3310487e-32 -3.7736577e-12)
(20 2.6720853e-33 -1.2107171e-12)
(20 1.3644952e-34 2.7964098e-12)
(20 -6.1644296e-34 -1.6583473e-13)
(20 1.3427176e-34 -1.9049367e-13)
(20 -6.1169169e-33 -8.39286e-13)
(20 1.6058681e-33 -6.1459738e-13)
(20 -1.5058673e-33 2.4964184e-12)
(20 1.8794803e-33 -7.6275783e-15)
(20 6.4913089e-34 4.1564374e-13)
(20 1.4338529e-33 -2.0206966e-13)
(20 3.4367182e-33 -1.1445401e-12)
(20 -2.3497636e-33 -2.2070534e-13)
(20 1.0564691e-33 -1.5185334e-13)
(20 2.5802297e-33 -4.5781251e-13)
(20 1.2615352e-33 5.2917197e-13)
(20 1.888114e-33 8.3923802e-13)
(20 8.4765637e-35 -1.0623661e-12)
(20 2.5310218e-33 -8.6968206e-13)
(20 -2.5818613e-33 1.2116164e-12)
(20 6.3542543e-34 1.14201e-12)
(20 -5.1227389e-35 -3.5656801e-13)
(20 -1.6022803e-35 -3.4981805e-13)
(20 2.0002607e-34 -1.6534248e-13)
(20 6.7214616e-35 -3.9254586e-13)
(20 4.0130544e-35 -5.8359431e-13)
(20 6.8452637e-34 3.5813374e-13)
(20 -2.7886199e-33 5.7472895e-13)
(20 -2.8862672e-33 -2.3358947e-13)
(20 2.8603928e-34 -2.5678937e-13)
(20 -1.1433684e-34 8.1513366e-14)
(19.656322 -2.977777e-21 -0.68923226)
(20.066921 -4.7130368e-21 -0.96207392)
(20.053397 0 -0.92572922)
(19.970109 3.1753354e-23 -1.395527)
(19.975999 1.5683711e-20 -0.83080148)
(19.956616 1.3795112e-20 -0.76907035)
(19.977739 -3.0415654e-20 -0.32024304)
(19.988523 -1.3451473e-21 -0.14995257)
(19.997311 4.5986666e-21 -0.030634557)
(19.999517 2.9893872e-25 -0.005912746)
(20.000027 -1.6661087e-23 0.00036723458)
(20.000022 8.1687204e-24 0.00019680232)
(20.000007 2.9508257e-25 7.254635e-05)
(20 -7.0057657e-25 3.1492317e-06)
(20 1.0759942e-26 -5.4145245e-07)
(20 9.0124672e-27 -2.9465546e-07)
(20 2.1398929e-27 -2.0328904e-08)
(20 -9.2414071e-29 1.6747131e-09)
(20 2.9228272e-29 7.5481558e-10)
(20 -3.4608e-30 4.568052e-11)
(20 7.2237947e-32 -3.948773e-12)
(20 -4.4147451e-32 -9.9722953e-13)
(20 -1.0629099e-32 -1.41088e-13)
(20 -4.1765544e-33 -3.9015032e-13)
(20 4.8959521e-36 1.3051506e-13)
(20 3.3845783e-33 2.4709596e-13)
(20 -1.153603e-32 -2.7600503e-12)
(20 3.6902709e-34 8.4147677e-13)
(20 -2.34064e-33 1.5994822e-12)
(20 5.4945867e-33 -5.7425102e-13)
(20 -1.1722982e-33 1.2220283e-12)
(20 1.5147624e-33 -7.9525102e-15)
(20 -7.6986678e-33 5.7962837e-13)
(20 -1.1711397e-34 -4.5514613e-13)
(20 -4.4498021e-35 -1.635584e-13)
(20 2.1331792e-34 -1.0005806e-12)
(20 3.9184249e-34 -1.3098446e-12)
(20 4.6818868e-33 1.6689383e-12)
(20 -3.3078333e-34 -9.4285706e-13)
(20 -7.532773e-35 2.6134548e-13)
(20 -3.9673154e-35 -1.1601247e-12)
(20 1.9591716e-33 -7.2983825e-13)
(20 6.6355703e-34 1.1902616e-12)
(20 3.1086557e-33 1.2733198e-13)
(20 -1.7399305e-33 1.4674077e-12)
(20 2.5414657e-33 1.066086e-12)
(20 9.7546369e-34 1.2148331e-12)
(20 1.4481946e-33 7.3441175e-13)
(20 1.9458124e-33 -1.7150115e-12)
(20 3.4504838e-33 -1.3954809e-12)
(20 -1.4962786e-33 -1.1238616e-12)
(20 5.1110081e-34 -7.6756719e-13)
(20 1.8922556e-34 7.0076854e-13)
(20 -3.9396682e-34 -8.0650999e-13)
(20 3.022343e-33 3.1980318e-13)
(20 -3.2340412e-33 4.8676881e-13)
(20 7.3108737e-34 6.5408398e-13)
(20 -1.6840301e-33 3.2246549e-13)
(20 -2.5974139e-34 2.313849e-15)
(20 4.6599162e-33 8.1519197e-13)
(20 2.5340632e-33 -1.808392e-13)
(20 2.6089359e-33 -1.1395946e-12)
(20 1.100363e-33 -1.3661724e-13)
(20 5.7960305e-34 3.2196322e-13)
(20 4.6286664e-34 -3.6766598e-14)
(20 1.9908183e-34 3.2733932e-13)
(20 -4.4885198e-34 -2.2121503e-13)
(20 -7.2763847e-34 6.4331837e-15)
(20 3.8416343e-34 3.7878664e-13)
(20 9.3758162e-34 2.1850609e-13)
(20 1.867172e-33 -1.7580981e-13)
(20 5.0782608e-35 -1.1905373e-14)
(20 -5.4703947e-34 4.8504244e-13)
(20 -1.0309135e-33 -2.9103947e-13)
(20 5.1076292e-35 -7.3518043e-14)
(20 5.4557991e-33 -4.6240499e-13)
(20 2.9445729e-33 -2.6945117e-13)
(20 -1.2043878e-34 3.781841e-13)
(20 8.1569401e-34 -2.9448096e-13)
(20 1.9696565e-35 1.4885628e-13)
(19.440878 -1.2388972e-22 -0.81192021)
(20.050579 3.5421653e-21 -1.1846142)
(20.032492 3.5476321e-21 -1.1535091)
(19.931735 -8.0336599e-23 -1.7139864)
(19.947026 -4.3563243e-23 -1.0631408)
(19.928065 4.5307829e-23 -0.99410833)
(19.963651 1.5647856e-23 -0.42325515)
(19.981657 -1.2014747e-20 -0.20257113)
(19.995614 -2.1988161e-21 -0.043212217)
(19.999189 1.0015021e-21 -0.0086679903)
(20.000033 5.8845503e-23 0.00037890128)
(20.000033 3.9630262e-24 0.00025895453)
(20.000011 9.0708325e-24 0.00010203777)
(20.000001 -1.4509057e-24 5.3464412e-06)
(20 -3.0744271e-26 -6.1292584e-07)
(20 -6.0469406e-26 -4.1044527e-07)
(20 -4.4706822e-28 -3.2820177e-08)
(20 2.6851065e-28 1.8468597e-09)
(20 -3.382301e-30 1.0647808e-09)
(20 6.0756317e-30 7.4718933e-11)
(20 1.0969252e-33 -6.0737668e-12)
(20 -2.5874338e-35 -6.3584615e-13)
(20 9.5600115e-35 7.1183477e-14)
(20 7.4222703e-36 5.2678552e-14)
(20 -5.2720778e-34 -7.2683741e-13)
(20 1.1534983e-34 2.8043513e-13)
(20 6.659357e-36 -6.2216102e-13)
(20 -4.008436e-33 -5.27719e-13)
(20 2.4458303e-33 1.2907093e-12)
(20 -4.5637921e-34 -1.3839812e-13)
(20 1.2076699e-35 7.190073e-14)
(20 -1.293401e-35 2.0007639e-13)
(20 -2.1762737e-33 7.3053842e-13)
(20 -1.086069e-34 -3.1823175e-13)
(20 3.865638e-35 1.8441465e-13)
(20 -1.0796294e-33 1.359087e-12)
(20 -5.3458555e-34 -1.188456e-12)
(20 -4.4834818e-33 -2.5154562e-13)
(20 9.2457453e-33 -5.0827654e-13)
(20 3.6410535e-34 -1.4132836e-12)
(20 1.4934476e-33 1.1445129e-12)
(20 1.9699696e-32 1.9705583e-12)
(20 3.0956764e-33 7.422407e-13)
(20 6.3889853e-33 -8.3140362e-13)
(20 -5.3906667e-33 9.8268226e-13)
(20 -2.6393228e-33 -7.9167211e-14)
(20 6.7890067e-33 -4.1598301e-13)
(20 -1.0224133e-33 8.4257934e-13)
(20 6.1972827e-34 -1.8148268e-12)
(20 -1.5115427e-33 -1.1341736e-12)
(20 -3.6143704e-35 1.6563313e-13)
(20 9.2179338e-33 7.8559475e-13)
(20 -9.2128375e-34 -3.5256209e-14)
(20 9.8195593e-33 -1.8293634e-12)
(20 -7.5928329e-34 1.6145615e-13)
(20 3.6448614e-33 2.4449823e-12)
(20 2.5975472e-33 9.0370516e-13)
(20 5.228468e-33 -1.6420961e-12)
(20 -9.5296333e-34 -2.7829343e-13)
(20 5.4486426e-33 1.8982514e-12)
(20 3.2064814e-33 3.6283034e-13)
(20 -2.140332e-33 -1.1304756e-12)
(20 5.2751766e-33 -9.1977547e-13)
(20 -3.8027212e-34 -5.2675196e-14)
(20 1.9698011e-34 5.4210823e-13)
(20 4.8056773e-34 -2.5537902e-13)
(20 -9.8381921e-34 -8.34046e-13)
(20 -1.4659183e-33 4.4600096e-13)
(20 -5.7754488e-38 5.0065418e-13)
(20 8.0354143e-34 4.2011263e-15)
(20 6.9087227e-34 -4.5407895e-13)
(20 5.7255571e-34 4.5155425e-13)
(20 3.9900293e-34 5.4087079e-13)
(20 5.4386994e-34 -6.203913e-13)
(20 1.0224008e-34 1.8443447e-13)
(20 -2.0649504e-33 1.4424267e-13)
(20 -2.1634275e-33 6.5049332e-14)
(20 1.5815749e-34 3.0020823e-13)
(20 -9.1844839e-34 -5.2231571e-13)
(20 3.5819525e-34 -1.3157715e-13)
(19.19539 3.4260425e-21 -0.92546292)
(20.029104 3.0291806e-21 -1.4161566)
(20.00656 -8.6665033e-21 -1.3892664)
(19.884479 -7.2741003e-21 -2.0395288)
(19.910649 -2.257444e-20 -1.3121967)
(19.89173 -1.7568688e-20 -1.2385854)
(19.945519 -5.1158149e-23 -0.53768729)
(19.972547 -1.0344392e-23 -0.26263415)
(19.99329 2.3338037e-21 -0.058200915)
(19.998714 1.3064581e-21 -0.01208278)
(20.000034 4.0579276e-24 0.00034001133)
(20.000047 4.212368e-25 0.00032634608)
(20.000016 4.6565569e-24 0.00013708093)
(20.000001 1.2487788e-25 8.3560639e-06)
(20 -7.115944e-27 -6.3389024e-07)
(20 -2.1403494e-26 -5.47954e-07)
(20 2.9284897e-28 -4.9491191e-08)
(20 1.3211575e-28 1.8127906e-09)
(20 -9.1556053e-30 1.437998e-09)
(20 1.6720366e-29 1.1509585e-10)
(20 -9.1274061e-32 -7.7092791e-12)
(20 9.7765945e-32 -2.0938449e-12)
(20 -6.3383762e-35 1.3039772e-12)
(20 -2.8942112e-33 1.0516466e-12)
(20 -6.4678452e-34 -1.0252955e-12)
(20 -9.7047546e-33 -1.2586266e-12)
(20 4.1329734e-33 -1.4120836e-12)
(20 1.8177974e-32 -1.5818261e-12)
(20 1.0464882e-32 1.9697179e-12)
(20 2.0016891e-33 1.8018243e-12)
(20 2.9491331e-33 -1.1184076e-12)
(20 2.5300652e-33 3.6190999e-13)
(20 1.3535617e-33 2.9207473e-13)
(20 2.0452531e-33 -1.0555762e-12)
(20 2.3511981e-34 -2.9630758e-14)
(20 -1.8432038e-33 1.4315803e-12)
(20 -2.4395804e-34 -3.2485399e-13)
(20 5.5433179e-33 1.4096835e-12)
(20 -1.7101339e-32 2.2492083e-12)
(20 9.4253322e-34 -3.3424986e-12)
(20 -1.8359191e-33 3.369588e-14)
(20 0 3.3235505e-12)
(20 4.0457206e-33 -5.3510944e-13)
(20 1.9801601e-33 -6.4189537e-13)
(20 -8.0722889e-35 1.039373e-12)
(20 5.0979631e-33 -1.2854096e-12)
(20 8.7364731e-34 -6.899738e-13)
(20 6.2188779e-34 2.2163991e-13)
(20 -5.2982768e-33 -1.0904545e-12)
(20 4.6517047e-33 7.7439217e-13)
(20 -8.6055683e-34 -2.0551031e-13)
(20 -1.1737872e-33 -5.7570687e-14)
(20 2.7973365e-33 1.2640328e-12)
(20 -3.0486508e-33 -8.1837562e-14)
(20 2.9341185e-33 -1.7163593e-12)
(20 3.2045314e-33 -1.6147658e-12)
(20 3.848095e-33 5.2205491e-13)
(20 -2.3962977e-33 1.1514649e-12)
(20 3.5791305e-33 1.8221582e-13)
(20 1.2808528e-34 7.4686155e-15)
(20 -6.4218871e-33 1.4993953e-12)
(20 1.6028298e-33 9.7997799e-13)
(20 -2.860263e-33 -7.7779714e-13)
(20 -4.4208742e-33 -5.2321325e-13)
(20 -3.7013225e-35 3.5134656e-13)
(20 -2.0704902e-33 4.5895632e-14)
(20 -2.2947622e-34 -7.6492761e-13)
(20 1.4648789e-33 -9.1015884e-14)
(20 -6.3922293e-34 1.4114754e-13)
(20 1.4173196e-33 3.3265705e-13)
(20 1.3639903e-34 6.4753082e-14)
(20 -3.6849916e-33 -2.743611e-13)
(20 6.6192738e-34 -1.4568722e-13)
(20 -2.9591661e-34 -1.5573267e-13)
(20 2.1445136e-33 3.1283142e-13)
(20 1.9482353e-34 -4.0324237e-14)
(20 -2.3554942e-33 -2.9232403e-14)
(20 -1.4458727e-35 -5.0385167e-14)
(20 -3.5937457e-34 5.006924e-13)
(20 1.5437262e-34 -2.2623077e-13)
(18.924471 7.5929918e-21 -1.0285723)
(20.002035 3.3167266e-22 -1.6568316)
(19.97502 -6.4361252e-21 -1.6328899)
(19.827571 1.7815139e-20 -2.3728204)
(19.865867 -1.3212669e-20 -1.5773228)
(19.846567 5.4405937e-20 -1.5017258)
(19.922731 2.8707868e-20 -0.66338394)
(19.960786 -1.8195796e-20 -0.33021562)
(19.990202 -3.125225e-21 -0.075701801)
(19.998054 -7.8383965e-22 -0.01620373)
(20.000027 5.5245991e-23 0.00023898633)
(20.000064 -5.1691356e-24 0.00039787576)
(20.000024 5.7233397e-25 0.00017773279)
(20.000002 8.0057874e-25 1.2301688e-05)
(20 7.3738693e-26 -5.876819e-07)
(20 4.5749443e-26 -7.0761742e-07)
(20 3.9301456e-28 -7.0756587e-08)
(20 -2.4850105e-28 1.4922962e-09)
(20 -1.1857926e-28 1.8771896e-09)
(20 -1.193692e-29 1.6795253e-10)
(20 6.2808817e-31 -9.4481449e-12)
(20 -2.009176e-32 -3.1361099e-12)
(20 1.5539626e-32 1.7013357e-12)
(20 -5.661083e-33 -1.1639091e-12)
(20 -1.2541359e-34 -9.3552432e-13)
(20 -1.8452761e-33 1.2617404e-12)
(20 -5.7727815e-33 1.9620625e-12)
(20 2.1527506e-33 3.5245662e-13)
(20 -1.6240004e-33 -1.5237402e-12)
(20 -2.0126388e-33 5.0568196e-13)
(20 -2.060927e-33 -1.2704752e-13)
(20 2.6936777e-33 -1.435653e-12)
(20 -2.3326199e-33 4.7961559e-13)
(20 4.9701973e-33 1.219308e-12)
(20 -7.4573069e-34 -2.2846342e-13)
(20 3.7524151e-33 -4.0892418e-13)
(20 2.7300971e-33 3.3164988e-13)
(20 -1.7230861e-33 5.3712388e-13)
(20 -7.7921334e-34 -4.8045272e-13)
(20 -3.0483698e-33 -3.0979279e-12)
(20 -1.9173288e-33 -1.0863203e-12)
(20 -8.9676955e-34 2.8547802e-12)
(20 1.6422381e-33 -3.5617384e-14)
(20 3.0594931e-33 9.4775576e-13)
(20 3.4866677e-34 4.5875784e-12)
(20 3.3635689e-33 -1.1923159e-12)
(20 3.0302951e-33 -2.8021351e-12)
(20 1.2209959e-32 2.3118606e-12)
(20 3.98725e-33 -2.9183198e-13)
(20 3.4475638e-33 -2.2291397e-12)
(20 4.2606407e-33 -1.4723785e-12)
(20 3.1602097e-34 -5.4532852e-14)
(20 -6.551487e-33 1.566862e-12)
(20 4.4368878e-33 8.3037418e-13)
(20 -2.2386939e-33 -3.2928864e-13)
(20 4.6644531e-33 -1.7289839e-12)
(20 -5.0850216e-33 -7.1786274e-13)
(20 3.1760145e-33 8.7056776e-13)
(20 -5.3091546e-34 3.3758998e-13)
(20 2.2545296e-33 -9.821657e-13)
(20 -8.8151453e-36 3.7253645e-14)
(20 -5.4346241e-33 4.5106662e-13)
(20 1.8101786e-33 -7.9656802e-13)
(20 5.1530201e-33 1.3518193e-12)
(20 -1.2127288e-34 5.5464364e-13)
(20 8.1501036e-34 -4.0442522e-13)
(20 6.3863611e-34 3.5222896e-13)
(20 7.9997927e-34 7.1441712e-13)
(20 3.8533046e-33 -7.6446215e-13)
(20 -6.7953415e-34 3.4866479e-13)
(20 -1.3802224e-34 1.4980633e-12)
(20 6.4828553e-34 -3.6858674e-13)
(20 -4.4151884e-34 -6.7991973e-13)
(20 2.3556845e-33 -3.6013609e-13)
(20 -3.462631e-34 -6.215613e-14)
(20 6.2382716e-35 5.0405709e-15)
(20 2.1354918e-33 -1.6663355e-13)
(20 -4.6253065e-34 5.5950115e-14)
(20 -4.0256655e-34 2.5650769e-13)
(20 -2.5792903e-33 -1.3097068e-14)
(18.632417 -3.7472837e-21 -1.1216904)
(19.968979 -7.3475747e-22 -1.9086088)
(19.937494 6.5566381e-21 -1.885041)
(19.760231 1.0167318e-21 -2.7157724)
(19.811691 1.2585205e-21 -1.858601)
(19.7914 3.820052e-20 -1.7839092)
(19.89461 4.6533288e-20 -0.80036199)
(19.945895 -9.9899479e-21 -0.40550724)
(19.986191 -7.092348e-21 -0.09584127)
(19.99716 -8.7951618e-23 -0.021082655)
(20.000006 7.764155e-24 6.4237774e-05)
(20.000083 3.9395885e-25 0.00047246555)
(20.000034 -6.7228512e-25 0.00022410871)
(20.000003 1.2373909e-24 1.7311424e-05)
(20 8.8172301e-26 -4.5766547e-07)
(20 -2.8074366e-26 -8.8978079e-07)
(20 1.0324515e-26 -9.7013514e-08)
(20 3.9491925e-28 8.0443067e-10)
(20 6.3441575e-30 2.3815949e-09)
(20 -1.4052565e-29 2.3451254e-10)
(20 3.6126716e-31 -8.0600064e-12)
(20 -1.5347856e-31 -5.4804669e-12)
(20 1.6268259e-32 -1.3822995e-12)
(20 -1.6198564e-33 3.378677e-13)
(20 -1.2232912e-33 -2.0280952e-12)
(20 1.7805783e-33 4.0430368e-14)
(20 -1.5178178e-34 1.6271994e-12)
(20 3.3262923e-33 1.9856573e-13)
(20 -2.4316729e-34 6.1496945e-13)
(20 0 -3.2983032e-13)
(20 3.2707227e-33 -4.4231791e-13)
(20 -6.788669e-35 7.1863282e-13)
(20 -2.0433161e-33 5.5669841e-13)
(20 6.2400408e-35 -8.5453217e-14)
(20 5.5526542e-34 -2.6388286e-13)
(20 3.3058805e-33 2.1492486e-13)
(20 -1.8135231e-33 1.4912778e-12)
(20 2.6578964e-35 -1.0064271e-12)
(20 1.200521e-34 -4.634839e-13)
(20 -2.712357e-33 -1.0494965e-12)
(20 5.9010661e-33 -3.5441256e-12)
(20 4.829084e-34 1.0733928e-12)
(20 1.3987739e-33 1.3262153e-12)
(20 -3.635504e-33 4.5451177e-13)
(20 3.0963066e-33 1.392682e-12)
(20 -1.393103e-34 8.0868292e-13)
(20 1.4738692e-32 -1.3269612e-12)
(20 2.1518121e-33 1.3751532e-12)
(20 1.3876154e-32 2.5856852e-12)
(20 -5.3018936e-33 -2.2546916e-12)
(20 -2.8824259e-33 -1.913871e-12)
(20 -3.1102321e-34 7.2611046e-13)
(20 5.0366974e-33 -5.408223e-13)
(20 1.6947687e-34 3.1409486e-13)
(20 1.2076755e-32 1.6167715e-12)
(20 -9.4226018e-33 -1.1482951e-13)
(20 6.5077578e-33 -4.9089068e-13)
(20 -8.3487262e-33 -7.3817113e-13)
(20 -3.9494127e-33 -9.8710065e-13)
(20 3.5458543e-33 -9.3627687e-13)
(20 -1.8935582e-35 -6.4867667e-13)
(20 6.1958289e-34 7.1575938e-13)
(20 4.309563e-33 -2.6641802e-13)
(20 -2.0330382e-34 -3.1310581e-13)
(20 2.8018762e-33 -3.1683796e-13)
(20 -5.9421542e-33 -1.6610591e-13)
(20 -4.8717111e-35 1.4309056e-13)
(20 1.4832247e-33 3.1147931e-13)
(20 -5.8634806e-35 -9.0681729e-14)
(20 -6.3266484e-34 2.9713591e-13)
(20 -2.2369762e-33 1.2177552e-12)
(20 -2.8223066e-33 -2.3743233e-13)
(20 1.2169109e-33 2.1974099e-13)
(20 2.9892558e-33 -3.290801e-15)
(20 8.9662211e-34 -1.5789193e-14)
(20 -5.376814e-34 4.3937325e-13)
(20 -1.3778906e-35 -5.7874635e-13)
(20 0 -2.0071264e-13)
(20 4.3606946e-33 2.0868577e-13)
(20 0 -7.2407157e-14)
(18.32015 3.5586373e-21 -1.2070412)
(19.928036 -6.2818952e-23 -2.1765613)
(19.893092 -8.4174536e-21 -2.1456179)
(19.681194 1.3180027e-20 -3.0701959)
(19.74696 -1.576098e-20 -2.156854)
(19.724495 2.1712923e-20 -2.0859268)
(19.860284 1.4726994e-21 -0.94908198)
(19.927289 -1.2388514e-20 -0.48883719)
(19.981062 -7.0997795e-24 -0.11878027)
(19.995976 1.962099e-25 -0.026778293)
(19.999966 3.2117277e-22 -0.00019617762)
(20.000106 -3.4700441e-24 0.00054900797)
(20.000046 1.8046425e-23 0.00027637657)
(20.000004 1.4181298e-24 2.3519846e-05)
(20 1.1042914e-26 -2.2691855e-07)
(20 6.1767673e-26 -1.0946992e-06)
(20 5.777917e-28 -1.2867725e-07)
(20 -5.0654107e-28 -3.3448882e-10)
(20 8.055931e-29 2.9501847e-09)
(20 1.7359647e-29 3.1429026e-10)
(20 -1.695486e-30 -7.0059037e-12)
(20 4.4650234e-32 -5.8963241e-12)
(20 -5.4121879e-32 -1.2188269e-12)
(20 3.1321994e-33 1.2989146e-12)
(20 -2.9268433e-33 1.0982247e-12)
(20 -8.0682888e-34 -4.3070453e-13)
(20 5.3123897e-34 -7.6866957e-13)
(20 9.3620694e-35 -3.1682245e-13)
(20 -6.3960187e-34 6.5145306e-13)
(20 1.147643e-33 4.0367317e-14)
(20 -4.9247e-34 -3.2552171e-13)
(20 2.5062091e-34 1.3478368e-13)
(20 2.0157417e-33 1.7548547e-13)
(20 -6.2965685e-34 -5.4284187e-13)
(20 -5.5520918e-34 2.0134292e-13)
(20 -3.9654612e-33 1.4800582e-12)
(20 1.169465e-33 4.5419209e-13)
(20 -2.2461758e-33 -7.8952376e-13)
(20 2.0941239e-33 -1.6821951e-12)
(20 8.3672759e-34 -1.493977e-12)
(20 -5.0076751e-34 -2.2582342e-13)
(20 9.2874457e-33 -7.194785e-13)
(20 4.1549305e-34 -8.1099206e-13)
(20 1.2078434e-32 1.0269483e-12)
(20 -1.0906681e-33 9.7994003e-13)
(20 3.6627313e-36 -3.3904233e-13)
(20 4.2202254e-33 -1.9679135e-12)
(20 3.8007497e-33 1.1451916e-12)
(20 3.8067722e-33 2.5669043e-12)
(20 0 -2.6834185e-13)
(20 -5.2509962e-33 -9.6507925e-13)
(20 -2.5359534e-33 -3.7759268e-14)
(20 -6.6116512e-34 -5.186907e-14)
(20 4.0721272e-33 -8.5684497e-13)
(20 7.8615566e-34 1.3617748e-12)
(20 1.3934219e-32 3.3395014e-12)
(20 -1.4871324e-33 4.3546081e-13)
(20 5.2651448e-33 -2.601151e-12)
(20 -3.6711242e-34 -2.3292885e-12)
(20 7.7305418e-34 -7.7231785e-13)
(20 2.0909939e-33 2.8054681e-13)
(20 2.8027964e-35 1.169681e-12)
(20 -2.466876e-33 -2.2109175e-13)
(20 -1.2531908e-33 -2.0110486e-12)
(20 -8.7639116e-33 1.2590325e-12)
(20 -9.4511557e-34 1.553921e-12)
(20 -4.0146836e-33 -1.2030118e-12)
(20 2.634034e-33 -6.9611338e-13)
(20 -1.670424e-33 -3.1259274e-13)
(20 7.6956879e-35 -6.3613253e-13)
(20 2.3616337e-33 4.5048309e-13)
(20 1.6958554e-33 1.1952981e-12)
(20 -2.3375118e-34 -8.918254e-14)
(20 2.5137406e-33 -5.1494913e-13)
(20 9.7866864e-34 1.3692214e-13)
(20 4.2442036e-34 2.4746887e-14)
(20 1.3677583e-33 1.6456436e-13)
(20 -3.7798276e-33 -4.4671879e-13)
(20 -2.5647861e-33 2.6181391e-13)
(20 4.4895423e-34 4.5731247e-14)
(17.979279 3.2189197e-21 -1.2904702)
(19.87732 -2.0638358e-22 -2.4699764)
(19.841681 -7.9859382e-22 -2.4101164)
(19.589052 1.5373094e-21 -3.4378711)
(19.670304 1.4482438e-21 -2.4725925)
(19.643984 -2.2828033e-21 -2.408599)
(19.818705 -1.5532883e-20 -1.1102424)
(19.904262 -2.4168838e-21 -0.58065327)
(19.974576 8.3113087e-22 -0.1447217)
(19.994431 -5.5863147e-21 -0.033358921)
(19.999899 -2.539871e-23 -0.00055538422)
(20.000133 -3.7353504e-24 0.00062650872)
(20.000062 -1.9498498e-23 0.00033478462)
(20.000006 -1.5928554e-25 3.1065326e-05)
(20 3.2555911e-25 1.2159768e-07)
(20 -3.0653376e-27 -1.3227317e-06)
(20 8.16894e-27 -1.662e-07)
(20 6.1844172e-28 -2.01254e-09)
(20 -7.8614167e-30 3.5829867e-09)
(20 2.0934871e-29 4.1106265e-10)
(20 -4.03661e-33 -6.1406878e-12)
(20 1.9503421e-31 -6.7309016e-12)
(20 2.4768826e-33 -3.4368849e-13)
(20 1.4436462e-35 8.5477143e-13)
(20 -1.2745815e-33 -1.556371e-14)
(20 2.6576891e-33 -1.2804153e-13)
(20 -2.4314819e-34 8.5574885e-13)
(20 2.3319733e-33 -4.6471643e-13)
(20 2.2283018e-34 -7.1327089e-13)
(20 -2.2955406e-33 9.780276e-13)
(20 -7.8940229e-34 2.5238055e-13)
(20 -3.8713472e-33 -1.0657431e-12)
(20 4.8207171e-34 3.0581541e-13)
(20 3.383294e-34 5.6814856e-13)
(20 -2.0751819e-33 -8.8614169e-13)
(20 -1.7268948e-33 -3.4410808e-13)
(20 -7.3934334e-33 2.530222e-12)
(20 4.9159396e-33 -3.0762725e-13)
(20 -1.1346297e-32 -3.4030581e-12)
(20 4.6592578e-34 2.1261765e-13)
(20 -6.409938e-35 1.2631501e-12)
(20 1.1270249e-33 5.9858447e-13)
(20 -1.7598618e-35 -4.0247121e-13)
(20 0 -3.4295265e-13)
(20 -9.9973718e-34 -4.083158e-13)