/*--------------------------------*- C++ -*----------------------------------*\
| =========                 |                                                 |
| \\      /  F ield         | OpenFOAM: The Open Source CFD Toolbox           |
|  \\    /   O peration     | Version:  2406                                  |
|   \\  /    A nd           | Website:  www.openfoam.com                      |
|    \\/     M anipulation  |                                                 |
\*---------------------------------------------------------------------------*/
FoamFile
{
    version     2.0;
    format      ascii;
    arch        "LSB;label=32;scalar=64";
    class       surfaceScalarField;
    location    "3e-05";
    object      phi;
}
// * * * * * * * * * * * * * * * * * * * * * * * * * * * * * * * * * * * * * //

dimensions      [1 0 -1 0 0 0 0];

oriented        oriented;

internalField   nonuniform List<scalar> 
31760
(
5.6463391e-05
-0.0052140039
0.0053083534
-0.00012549719
-0.0054611154
0.0055583202
-0.00028813141
-0.0057196589
0.0058229957
-0.00047719744
-0.0059835383
0.0060885088
-0.00069291756
-0.0062651419
0.0063768381
-0.00085289083
-0.0065614662
0.0066784698
-0.00099286596
-0.0068745517
0.0069975175
-0.0011206694
-0.0072033069
0.0073319454
-0.0012548026
-0.0075480632
0.0076825408
-0.001394949
-0.0079093691
0.008049801
-0.0015415299
-0.0082880034
0.0084345984
-0.001694539
-0.0086847849
0.0088377911
-0.0018542029
-0.0091005921
0.0092602534
-0.0020207857
-0.0095363353
0.009702918
-0.0021945091
-0.0099930037
0.010166727
-0.0023756741
-0.010471554
0.010652719
-0.0025645607
-0.010973059
0.011161945
-0.0027614255
-0.011498638
0.011695502
-0.0029665483
-0.012049458
0.012254581
-0.0031802092
-0.012626709
0.012840369
-0.0034026881
-0.013231696
0.013454175
-0.0036342882
-0.013865704
0.014097304
-0.0038752895
-0.014530178
0.014771179
-0.0041259952
-0.015226588
0.015477293
-0.0043866153
-0.015956497
0.016217117
-0.0046574998
-0.016721444
0.016992329
-0.0049389284
-0.01752318
0.017804609
-0.0052311346
-0.0183635
0.018655706
-0.0055343516
-0.019244248
0.019547465
-0.0058488593
-0.020167382
0.02048189
-0.0061748677
-0.021134957
0.021460965
-0.0065125868
-0.022149117
0.022486836
-0.0068621798
-0.023212173
0.023561766
-0.0072238334
-0.02432641
0.024688064
-0.0075976408
-0.025494395
0.025868202
-0.0079836721
-0.026718717
0.027104748
-0.0083819739
-0.028002105
0.028400407
-0.0087925229
-0.029347476
0.029758025
-0.0092152491
-0.030757769
0.031180495
-0.0096499892
-0.032236249
0.032670989
-0.010096533
-0.033786206
0.03423275
-0.010554555
-0.035411116
0.035869138
-0.011023634
-0.037114665
0.037583744
-0.011503257
-0.038900701
0.039380324
-0.011992748
-0.040773307
0.041262798
-0.012491313
-0.042736683
0.043235248
-0.01299795
-0.04479533
0.045301967
-0.013511539
-0.04695389
0.047467479
-0.014030726
-0.049217357
0.049736544
-0.014553902
-0.051590885
0.052114061
-0.015079202
-0.054079886
0.054605186
-0.015604524
-0.056690123
0.057215446
-0.016127397
-0.059427591
0.059950464
-0.016644998
-0.062298611
0.062816212
-0.017154155
-0.065309809
0.065818965
-0.017651157
-0.06846823
0.068965232
-0.018131877
-0.071781199
0.072261918
-0.018591648
-0.075256437
0.075716208
-0.019025105
-0.078902109
0.079335566
-0.019426299
-0.082726777
0.083127971
-0.019788489
-0.086739468
0.087101658
-0.02010414
-0.090949654
0.091265305
-0.02036476
-0.095367342
0.095627962
-0.020560855
-0.1000031
0.1001992
-0.020681788
-0.10486796
0.10498889
-0.020715706
-0.10997369
0.1100076
-0.020649222
-0.11533256
0.11526608
-0.020467963
-0.12095741
0.12077615
-0.020155368
-0.12686218
0.12654959
-0.019692775
-0.13306136
0.13259876
-0.019059887
-0.13957009
0.13893721
-0.018234543
-0.14640426
0.14557891
-0.017191083
-0.15358111
0.15253765
-0.015902212
-0.16111838
0.15982951
-0.014336439
-0.16903519
0.16746942
-0.012459704
-0.17735161
0.17547488
-0.010234215
-0.18608864
0.18386315
-0.0076175162
-0.19526866
0.19265196
-0.004563418
-0.20491525
0.20186115
-0.21505358
0.21151053
0.00012471622
-0.0051068609
-5.4004725e-05
-0.0053733131
-0.00025769969
-0.0056288762
-0.00057292811
-0.0058846811
-0.00096424229
-0.0061606885
-0.0012187712
-0.0064513489
-0.0013994359
-0.00675868
-0.0015296756
-0.0070820268
-0.0016570917
-0.0074213648
-0.0017887928
-0.0077770776
-0.0019267562
-0.008149888
-0.0020708983
-0.0085406204
-0.0022213559
-0.0089501384
-0.0023783334
-0.0093793591
-0.0025420959
-0.0098292413
-0.0027129033
-0.010300746
-0.0028909657
-0.010794996
-0.0030765864
-0.011313017
-0.0032700219
-0.011856022
-0.0034715523
-0.012425178
-0.0036814574
-0.013021791
-0.0038999705
-0.013647191
-0.0041273949
-0.014302753
-0.0043639872
-0.014989995
-0.0046100973
-0.015710387
-0.0048658885
-0.016465653
-0.0051316875
-0.017257381
-0.0054077274
-0.01808746
-0.0056942882
-0.018957687
-0.0059915799
-0.019870091
-0.006299859
-0.020826678
-0.0066193123
-0.021829664
-0.0069501263
-0.022881359
-0.0072924643
-0.023984072
-0.0076464429
-0.025140416
-0.0080121789
-0.026352981
-0.0083896955
-0.027624589
-0.0087790627
-0.028958109
-0.0091801638
-0.030356668
-0.009592929
-0.031823484
-0.010017195
-0.03336194
-0.010452681
-0.03497563
-0.010899016
-0.036668331
-0.011355777
-0.038443939
-0.011822383
-0.040306701
-0.012298134
-0.042260932
-0.012782189
-0.044311274
-0.0132735
-0.04646258
-0.013770876
-0.048719981
-0.014272917
-0.051088844
-0.014777968
-0.053574836
-0.015284115
-0.056183976
-0.015789142
-0.058922564
-0.01629053
-0.061797223
-0.016785386
-0.064814953
-0.017270398
-0.067983218
-0.017741833
-0.071309764
-0.018195446
-0.074802824
-0.018626407
-0.078471148
-0.019029327
-0.082323856
-0.019398096
-0.0863707
-0.019725854
-0.090621896
-0.020004856
-0.09508834
-0.020226542
-0.099781415
-0.020381207
-0.1047133
-0.020458166
-0.10989673
-0.020445102
-0.11534563
-0.020328695
-0.12107381
-0.020094016
-0.12709686
-0.019724268
-0.13343111
-0.019201021
-0.14009334
-0.018503515
-0.14710176
-0.017608887
-0.15447574
-0.016491477
-0.16223579
-0.015123291
-0.17040338
-0.013472837
-0.17900207
-0.011505589
-0.18805589
-0.0091828232
-0.19759143
-0.006462315
-0.20763575
-0.21821942
0.00022919169
-0.0050080903
5.4184964e-05
-0.0052932975
-0.00030162468
-0.0055424061
-0.00065509262
-0.0057953698
-0.0011914901
-0.0060632255
-0.0015440179
-0.0063476163
-0.0017751756
-0.0066490709
-0.0019110946
-0.0069672258
-0.0020333658
-0.0073013819
-0.0021577983
-0.0076517764
-0.0022883151
-0.0080190546
-0.0024248493
-0.0084040374
-0.0025674139
-0.0088075788
-0.0027161923
-0.0092305826
-0.0028714169
-0.009674017
-0.003033313
-0.01013885
-0.0032021608
-0.010626148
-0.0033781704
-0.011137007
-0.0035616682
-0.011672524
-0.003752841
-0.012234005
-0.0039520152
-0.012822617
-0.0041594242
-0.013439782
-0.0043753246
-0.014086853
-0.004600043
-0.014765277
-0.0048337659
-0.015476664
-0.0050768434
-0.016222576
-0.005329462
-0.017004762
-0.0055919484
-0.017824974
-0.0058644891
-0.018685146
-0.0061474107
-0.019587169
-0.0064408533
-0.020533235
-0.0067450734
-0.021525444
-0.007060281
-0.022566151
-0.0073865926
-0.02365776
-0.0077242184
-0.024802791
-0.0080732515
-0.026003948
-0.0084338087
-0.027264032
-0.0088058665
-0.028586051
-0.0091894717
-0.029973062
-0.0095845542
-0.031428401
-0.0099909508
-0.032955544
-0.010408498
-0.034558082
-0.01083694
-0.036239889
-0.011275856
-0.038005023
-0.011724802
-0.039857754
-0.012183174
-0.041802561
-0.01265027
-0.043844178
-0.013125157
-0.045987692
-0.013606857
-0.048238282
-0.014094108
-0.050601592
-0.014585418
-0.053083525
-0.015079178
-0.055690216
-0.015573405
-0.058428337
-0.016065858
-0.061304769
-0.016553973
-0.064326838
-0.017034809
-0.067502382
-0.017505054
-0.070839518
-0.017960836
-0.074347042
-0.018397932
-0.078034052
-0.018811421
-0.081910368
-0.019195866
-0.085986255
-0.019545062
-0.0902727
-0.019852128
-0.094781274
-0.020109249
-0.099524294
-0.0203077
-0.10451485
-0.020437637
-0.10976679
-0.020488492
-0.11529477
-0.020447901
-0.1211144
-0.020302101
-0.12724266
-0.020036396
-0.13369681
-0.019633522
-0.14049622
-0.019075283
-0.14766
-0.018340452
-0.15521057
-0.017406167
-0.16317007
-0.016246533
-0.17156301
-0.014833325
-0.18041528
-0.013135048
-0.18975416
-0.011116945
-0.19960953
-0.008739825
-0.21001287
-0.22099778
0.0002255207
-0.0049098657
0.00011958484
-0.0052185582
-0.00025930844
-0.0054638001
-0.00070555542
-0.0057137052
-0.0013881462
-0.0059717123
-0.0018420515
-0.0062500347
-0.0021255349
-0.0065449575
-0.0022683046
-0.0068578768
-0.0023866873
-0.0071869743
-0.002505025
-0.0075322663
-0.0026293339
-0.0078942529
-0.002759568
-0.0082737249
-0.0028956118
-0.0086715417
-0.0030375956
-0.0090886015
-0.0031857613
-0.0095258517
-0.0033403558
-0.0099842557
-0.003501622
-0.010464882
-0.0036697934
-0.010968836
-0.0038451031
-0.011497215
-0.0040278544
-0.012051254
-0.004218234
-0.012632237
-0.0044165918
-0.013241424
-0.004623161
-0.013880284
-0.0048381749
-0.014550263
-0.0050619601
-0.015252878
-0.0052947267
-0.015989809
-0.0055367777
-0.016762711
-0.0057883466
-0.017573405
-0.0060497598
-0.018423733
-0.0063211575
-0.019315771
-0.0066028427
-0.02025155
-0.0068950489
-0.021233237
-0.0071979626
-0.022263237
-0.0075117939
-0.023343929
-0.0078367292
-0.024477855
-0.0081728853
-0.025667792
-0.0085203788
-0.026916538
-0.0088793263
-0.028227104
-0.0092497278
-0.029602661
-0.0096315834
-0.031046546
-0.01002487
-0.032562258
-0.0104294
-0.034153552
-0.010845011
-0.035824278
-0.011271423
-0.037578611
-0.01170824
-0.039420938
-0.01215504
-0.04135576
-0.012611125
-0.043388093
-0.013075889
-0.045522929
-0.013548373
-0.047765797
-0.014027553
-0.050122412
-0.014512215
-0.052598863
-0.015000866
-0.055201565
-0.01549185
-0.057937353
-0.015983254
-0.060813366
-0.016472745
-0.063837347
-0.01695785
-0.067017277
-0.017435583
-0.070361785
-0.017902609
-0.073880016
-0.018355149
-0.077581513
-0.018788886
-0.081476631
-0.019198968
-0.085576172
-0.019579914
-0.089891754
-0.019925588
-0.0944356
-0.020229038
-0.099220843
-0.020482497
-0.10426139
-0.020677449
-0.10957184
-0.020803653
-0.11516857
-0.020850775
-0.12106728
-0.020806219
-0.12728722
-0.02065692
-0.13384611
-0.020387715
-0.14076542
-0.019981109
-0.14806661
-0.019419371
-0.15577231
-0.018681041
-0.1639084
-0.017743489
-0.17250056
-0.01658129
-0.18157748
-0.015165282
-0.19117017
-0.013464673
-0.20131014
-0.011444237
-0.21203331
-0.22337654
0.00021536469
-0.0048118847
0.00017303115
-0.0051490382
-0.0002046441
-0.0053916613
-0.00073240672
-0.005639245
-0.0015599804
-0.0058857606
-0.0021116121
-0.0061575392
-0.0024502516
-0.0064452236
-0.00260263
-0.0067528212
-0.0027188379
-0.0070769291
-0.0028323041
-0.0074172905
-0.0029517284
-0.007774158
-0.0030770335
-0.0081483041
-0.0032080049
-0.0085405785
-0.0033447362
-0.008951874
-0.003487462
-0.0093831265
-0.0036363877
-0.0098353299
-0.0037917754
-0.010309494
-0.0039538814
-0.01080673
-0.0041229393
-0.011328157
-0.0042992054
-0.011874988
-0.0044829832
-0.012448459
-0.0046744359
-0.013049971
-0.0048739134
-0.013680806
-0.0050816723
-0.014342504
-0.0052979459
-0.015036605
-0.0055230375
-0.015764717
-0.005757227
-0.016528522
-0.0060007711
-0.017329861
-0.0062539262
-0.018170578
-0.0065169725
-0.019052725
-0.0067901664
-0.019978356
-0.0070737412
-0.020949663
-0.0073679303
-0.021969048
-0.0076729902
-0.023038869
-0.0079890842
-0.024161761
-0.008316399
-0.025340477
-0.0086550978
-0.026577839
-0.0090053207
-0.027876881
-0.0093671375
-0.029240844
-0.0097406184
-0.030673065
-0.01012574
-0.032177136
-0.010522502
-0.03375679
-0.010930742
-0.035416038
-0.011350295
-0.037159058
-0.011780953
-0.03899028
-0.012222295
-0.040914418
-0.012673901
-0.042936487
-0.013135188
-0.045061642
-0.013605434
-0.047295552
-0.014083844
-0.049644002
-0.014569345
-0.052113362
-0.015060773
-0.054710138
-0.015556702
-0.057441424
-0.016055477
-0.06031459
-0.016555232
-0.063337592
-0.017053751
-0.066518758
-0.017548468
-0.069867069
-0.018036582
-0.073391902
-0.018514759
-0.077103336
-0.018979312
-0.081012078
-0.019425973
-0.085129511
-0.019849982
-0.089467745
-0.020245928
-0.094039654
-0.020607768
-0.098859003
-0.020928691
-0.10394047
-0.021200928
-0.1092996
-0.021416245
-0.11495325
-0.021564378
-0.12091915
-0.021635528
-0.12721607
-0.021616633
-0.13386501
-0.021495094
-0.14088696
-0.021255749
-0.14830595
-0.020882035
-0.15614602
-0.020355523
-0.16443491
-0.019655683
-0.1732004
-0.018759656
-0.1824735
-0.017642479
-0.19228735
-0.01627546
-0.20267716
-0.014627805
-0.21368096
-0.22533912
0.00020599317
-0.0047150097
0.00021989157
-0.0050839296
-0.00014027191
-0.0053252194
-0.00074161946
-0.0055717
-0.0017074891
-0.0058044285
-0.0023553039
-0.0060692278
-0.0027520221
-0.0063487705
-0.0029167489
-0.0066508688
-0.0030325361
-0.0069699765
-0.0031424762
-0.0073055076
-0.0032584245
-0.0076573699
-0.0033802601
-0.0080263078
-0.0035076911
-0.0084131564
-0.0036407632
-0.0088188066
-0.0037796915
-0.0092441991
-0.0039247448
-0.0096902766
-0.0040761433
-0.010158096
-0.0042341204
-0.010648753
-0.0043989558
-0.011163321
-0.0045708597
-0.011703084
-0.0047501351
-0.012269184
-0.0049370389
-0.012863068
-0.0051318508
-0.013485994
-0.0053348274
-0.014139528
-0.0055462722
-0.01482516
-0.0057664883
-0.015544501
-0.0059956856
-0.016299325
-0.0062342141
-0.017091333
-0.0064823304
-0.017922462
-0.0067403145
-0.018794741
-0.0070084695
-0.019710201
-0.0072870288
-0.020671103
-0.007576319
-0.021679758
-0.0078765034
-0.022738685
-0.0081878852
-0.023850379
-0.0085106977
-0.025017665
-0.0088451042
-0.026243433
-0.0091912913
-0.027530694
-0.0095494456
-0.02888269
-0.0099196606
-0.03030285
-0.010302053
-0.031794744
-0.010696599
-0.033362244
-0.011103345
-0.035009292
-0.011522222
-0.036740181
-0.01195302
-0.038559483
-0.012395552
-0.040471887
-0.012849584
-0.042482455
-0.013314604
-0.044596622
-0.013790191
-0.046819965
-0.0142756
-0.049158594
-0.014770153
-0.051618809
-0.015272847
-0.054207444
-0.015782563
-0.056931708
-0.016297972
-0.059799182
-0.016817509
-0.062818055
-0.017339356
-0.065996911
-0.017861482
-0.069344942
-0.018381416
-0.072871968
-0.018896428
-0.076588324
-0.019403321
-0.080505184
-0.019898574
-0.084634259
-0.020378081
-0.088988238
-0.020837245
-0.093580489
-0.021270842
-0.098425406
-0.021672993
-0.10353831
-0.022037073
-0.10893552
-0.022355663
-0.11463466
-0.022620669
-0.12065414
-0.022822222
-0.12701451
-0.022950526
-0.1337367
-0.02299345
-0.14084404
-0.022938162
-0.14836124
-0.022770201
-0.15631398
-0.022473236
-0.16473188
-0.022029305
-0.17364433
-0.021418578
-0.18308423
-0.020618429
-0.1930875
-0.019604595
-0.20369099
-0.01834955
-0.21493601
-0.22686594
0.000191483
-0.0046192518
0.00026206148
-0.005021852
-7.0135156e-05
-0.0052637498
-0.00073877538
-0.0055104217
-0.0018352281
-0.0057268436
-0.0025776208
-0.0059841634
-0.0030347513
-0.0062544479
-0.0032143866
-0.006550752
-0.0033315627
-0.0068647602
-0.0034394074
-0.0071954995
-0.0035533796
-0.0075424002
-0.0036733023
-0.0079061728
-0.0037988276
-0.0082876402
-0.0039299528
-0.008687687
-0.0040669195
-0.0091072336
-0.0042099293
-0.0095472668
-0.004359275
-0.01000875
-0.0045151758
-0.010492852
-0.0046778884
-0.011000609
-0.004847716
-0.011533256
-0.0050248687
-0.012092031
-0.0052096962
-0.01267824
-0.0054024319
-0.013293259
-0.0056033557
-0.013938604
-0.0058127943
-0.014615721
-0.0060310041
-0.015326292
-0.0062583586
-0.01607197
-0.0064951142
-0.016854577
-0.0067415509
-0.017676025
-0.0069980419
-0.01853825
-0.0072648439
-0.019443399
-0.0075422835
-0.020393664
-0.0078306406
-0.021391401
-0.0081302651
-0.02243906
-0.0084413669
-0.023539278
-0.0087642494
-0.024694782
-0.0090992158
-0.025908466
-0.009446476
-0.027183434
-0.00980624
-0.028522926
-0.010178718
-0.029930372
-0.010564096
-0.031409366
-0.010962491
-0.032963849
-0.01137402
-0.034597763
-0.011798682
-0.036315518
-0.012236525
-0.03812164
-0.012687455
-0.040020957
-0.013151308
-0.042018601
-0.013627922
-0.044120008
-0.014116899
-0.046330987
-0.014617891
-0.048657602
-0.01513029
-0.05110641
-0.015653443
-0.053684291
-0.016186557
-0.056398594
-0.016728583
-0.059257157
-0.017278353
-0.062268285
-0.017834422
-0.065440842
-0.01839518
-0.068784184
-0.01895869
-0.072308458
-0.019522714
-0.0760243
-0.020084731
-0.079943167
-0.020641757
-0.084077233
-0.021190477
-0.088439517
-0.021727044
-0.093043923
-0.022247141
-0.097905309
-0.02274587
-0.10303959
-0.023217631
-0.10846376
-0.023656197
-0.1141961
-0.024054639
-0.1202557
-0.024404792
-0.12666436
-0.024697791
-0.1334437
-0.024924073
-0.14061775
-0.025072205
-0.14821311
-0.025129592
-0.15625659
-0.025082936
-0.16477854
-0.024916141
-0.17381113
-0.024611944
-0.18338843
-0.024151684
-0.19354776
-0.023513663
-0.20432901
-0.02267409
-0.21577558
-0.22793342
0.00017560784
-0.0045240653
0.00030014896
-0.004962191
2.3614739e-06
-0.0052067304
-0.00072715634
-0.0054548592
-0.0019459773
-0.0056521248
-0.0027809659
-0.0059013419
-0.0033002491
-0.0061610282
-0.0034972081
-0.0064511172
-0.0036176399
-0.0067598267
-0.0037249454
-0.0070857361
-0.0038385481
-0.0074276505
-0.0039582177
-0.0077862335
-0.0040835884
-0.008162278
-0.0042146027
-0.0085566795
-0.0043514928
-0.008970345
-0.0044945306
-0.009404229
-0.0046438995
-0.0098593811
-0.0047999404
-0.010336811
-0.0049628862
-0.010837663
-0.0051330172
-0.011363126
-0.005310613
-0.011914436
-0.0054959538
-0.012492899
-0.0056893426
-0.01309987
-0.0058911529
-0.013736793
-0.0061015946
-0.01440528
-0.0063210641
-0.015106822
-0.0065498416
-0.015843193
-0.0067882768
-0.016616142
-0.0070367197
-0.017427582
-0.0072954969
-0.018279473
-0.007564935
-0.019173961
-0.0078454072
-0.020113192
-0.0081372635
-0.021099545
-0.0084408071
-0.022135517
-0.0087564112
-0.023223673
-0.0090844258
-0.024366767
-0.0094251309
-0.025567761
-0.0097788762
-0.026829688
-0.010145965
-0.028155837
-0.010526678
-0.02954966
-0.01092127
-0.031014773
-0.011330046
-0.032555073
-0.011753146
-0.034174664
-0.012190779
-0.035877886
-0.012643085
-0.037669334
-0.013110134
-0.039553908
-0.013591973
-0.041536762
-0.014088579
-0.043623402
-0.014599835
-0.045819731
-0.015125554
-0.048131883
-0.01566548
-0.050566484
-0.01621917
-0.053130601
-0.016786133
-0.05583163
-0.017365693
-0.058677596
-0.017957057
-0.061676921
-0.018559245
-0.064838654
-0.019171021
-0.068172408
-0.019790986
-0.071688493
-0.020417482
-0.075397804
-0.02104855
-0.079312098
-0.021681928
-0.083443855
-0.022315002
-0.087806443
-0.022944741
-0.092414184
-0.023567738
-0.097282312
-0.024180004
-0.10242732
-0.02477713
-0.10786663
-0.025354007
-0.11361922
-0.025904781
-0.11970493
-0.026423128
-0.12614601
-0.026902052
-0.13296478
-0.027332453
-0.14018735
-0.027705933
-0.14783963
-0.02801153
-0.155951
-0.028238045
-0.16455202
-0.028372414
-0.17367676
-0.028400174
-0.18336067
-0.028305229
-0.1936427
-0.02806915
-0.20456509
-0.027672574
-0.21617216
-0.22851359
0.0001639972
-0.0044286525
0.0003347969
-0.0049040647
0.00011534852
-0.0051533038
-0.00070991818
-0.0054046184
-0.0020435528
-0.0055793322
-0.002968981
-0.0058196948
-0.003551909
-0.006067186
-0.0037685489
-0.0063505067
-0.0038941716
-0.0066536225
-0.00400261
-0.0069745802
-0.004117564
-0.0073114062
-0.0042387832
-0.0076646819
-0.0043658741
-0.0080351941
-0.0044987464
-0.0084238151
-0.004637636
-0.0088314573
-0.0047827967
-0.0092590684
-0.0049345194
-0.0097076583
-0.0050930563
-0.010178274
-0.0052586849
-0.010672034
-0.0054317318
-0.011190079
-0.0056124536
-0.011733714
-0.0058012236
-0.012304129
-0.0059982983
-0.012902795
-0.0062040277
-0.013531064
-0.006418785
-0.014190522
-0.0066428735
-0.014882733
-0.0068766898
-0.015609376
-0.0071205838
-0.016372248
-0.0073749053
-0.01717326
-0.0076400744
-0.018014304
-0.0079164875
-0.018897548
-0.0082044947
-0.019825184
-0.0085044924
-0.020799547
-0.008816924
-0.021823085
-0.0091421859
-0.022898412
-0.0094806514
-0.024028302
-0.0098327639
-0.025215649
-0.01019892
-0.026463532
-0.010579492
-0.027775264
-0.010974901
-0.029154251
-0.011385497
-0.030604177
-0.011811629
-0.03212894
-0.012253671
-0.033732622
-0.012711972
-0.035419584
-0.01318679
-0.037194516
-0.013678404
-0.039062294
-0.014187023
-0.041028142
-0.014712836
-0.04309759
-0.015255981
-0.045276586
-0.015816482
-0.047571382
-0.016394363
-0.049988603
-0.016989529
-0.052535435
-0.017601772
-0.055219388
-0.018230834
-0.058048534
-0.018876272
-0.061031482
-0.01953755
-0.064177376
-0.020213898
-0.06749606
-0.0209045
-0.070997892
-0.021608211
-0.074694093
-0.022323704
-0.078596606
-0.023049437
-0.082718122
-0.023783545
-0.087072335
-0.024523858
-0.091673871
-0.025267787
-0.096538383
-0.026012486
-0.10168262
-0.026754525
-0.10712459
-0.02749015
-0.11288359
-0.028214717
-0.11898036
-0.02892342
-0.12543731
-0.029610196
-0.132278
-0.030268978
-0.13952857
-0.030892301
-0.1472163
-0.031472001
-0.1553713
-0.031998514
-0.16402551
-0.032461574
-0.1732137
-0.032849518
-0.18297272
-0.033149049
-0.19334317
-0.033345937
-0.2043682
-0.03342292
-0.21609518
-0.22857378
0.00015435013
-0.0043323656
0.00036685139
-0.0048466533
0.00024409142
-0.0051028181
-0.0006885461
-0.0053589212
-0.0021313632
-0.0055074314
-0.0031451882
-0.0057380732
-0.0037932161
-0.0059715035
-0.004031907
-0.0062473534
-0.0041647627
-0.0065444646
-0.0042761596
-0.0068602732
-0.0043942948
-0.0071918145
-0.0045189832
-0.0075395935
-0.0046498278
-0.0079043544
-0.0047866809
-0.0082869709
-0.0049297956
-0.0086883449
-0.0050794445
-0.0091094194
-0.0052359168
-0.0095511859
-0.0053995159
-0.010014675
-0.0055705333
-0.010501017
-0.0057492489
-0.011011363
-0.0059360826
-0.01154688
-0.0061312678
-0.012108944
-0.0063352476
-0.012698815
-0.0065483253
-0.013317986
-0.0067708741
-0.013967974
-0.007003314
-0.014650294
-0.0072460183
-0.015366672
-0.0074993834
-0.016118883
-0.0077638759
-0.016908768
-0.0080398925
-0.017738287
-0.008327853
-0.018609587
-0.0086282473
-0.01952479
-0.0089415187
-0.020486276
-0.0092681569
-0.021496447
-0.0096086287
-0.02255794
-0.0099634238
-0.023673507
-0.010333032
-0.024846041
-0.010717944
-0.026078621
-0.011118695
-0.027374513
-0.011535753
-0.028737193
-0.011969629
-0.0301703
-0.012420839
-0.031677731
-0.012889871
-0.03326359
-0.013377169
-0.034932286
-0.013883246
-0.036688439
-0.014408569
-0.038536971
-0.014953534
-0.040483177
-0.015518561
-0.042532563
-0.016104023
-0.044691124
-0.01671027
-0.046965135
-0.017337536
-0.049361337
-0.017986124
-0.051886847
-0.01865615
-0.054549362
-0.019347707
-0.057356977
-0.02006082
-0.060318369
-0.020795371
-0.063442825
-0.021551174
-0.066740257
-0.022327856
-0.070221211
-0.023124949
-0.073896999
-0.023941802
-0.077779754
-0.024777503
-0.081882421
-0.025631027
-0.086218811
-0.026501044
-0.090803854
-0.02738599
-0.095653436
-0.028283931
-0.10078468
-0.029192625
-0.1062159
-0.030109414
-0.1119668
-0.031031336
-0.11805844
-0.031954657
-0.12451399
-0.032875412
-0.13135725
-0.033789169
-0.13861481
-0.034689862
-0.14631561
-0.035571893
-0.15448927
-0.036428262
-0.16316914
-0.037251273
-0.17239069
-0.038031361
-0.18219263
-0.038759194
-0.19261534
-0.039423108
-0.20370429
-0.040010506
-0.21550778
-0.22807736
0.00013421856
-0.004234508
0.00039641243
-0.0047891706
0.00036265391
-0.0050544674
-0.00066464032
-0.0053172665
-0.0022115962
-0.0054353819
-0.0033123532
-0.005655264
-0.0040270508
-0.005872461
-0.0042902419
-0.0061399725
-0.0044324864
-0.0064305448
-0.004548813
-0.0067409052
-0.0046721046
-0.0070668854
-0.0048023518
-0.0074088733
-0.0049391352
-0.007767573
-0.0050822599
-0.0081438562
-0.0052319955
-0.0085386119
-0.0053886428
-0.0089527721
-0.0055525078
-0.0093873209
-0.0057238914
-0.0098432918
-0.0059031668
-0.010321742
-0.0060906538
-0.010823876
-0.006286702
-0.011350832
-0.0064917083
-0.011903938
-0.0067060224
-0.012484501
-0.0069300642
-0.013093944
-0.0071642771
-0.013733761
-0.0074090341
-0.014405536
-0.007664802
-0.015110904
-0.0079320473
-0.015851637
-0.0082112598
-0.016629555
-0.0085028595
-0.017446688
-0.0088074528
-0.018304994
-0.0091254831
-0.01920676
-0.0094575567
-0.020154202
-0.0098041638
-0.02114984
-0.010165864
-0.02219624
-0.010543287
-0.023296083
-0.010937017
-0.024452311
-0.011347636
-0.025668002
-0.011775774
-0.026946375
-0.012222085
-0.028290882
-0.012687198
-0.029705187
-0.013171767
-0.031193162
-0.013676421
-0.032758936
-0.01420186
-0.034406847
-0.014748738
-0.036141562
-0.015317683
-0.037968025
-0.015909421
-0.03989144
-0.016524533
-0.041917451
-0.017163719
-0.044051937
-0.017827587
-0.046301267
-0.018516765
-0.048672159
-0.019231767
-0.051171845
-0.019973177
-0.053807952
-0.020741507
-0.056588646
-0.021537178
-0.059522699
-0.022360585
-0.062619417
-0.023212079
-0.065888763
-0.024091871
-0.069341419
-0.025000099
-0.072988771
-0.025936763
-0.076843089
-0.026901842
-0.080917343
-0.027895007
-0.085225646
-0.028915862
-0.089782999
-0.029963801
-0.094605497
-0.031037984
-0.099710498
-0.032137338
-0.10511655
-0.033260534
-0.11084361
-0.034405727
-0.11691324
-0.035571193
-0.12334852
-0.036754388
-0.13017405
-0.037952046
-0.13741716
-0.039161601
-0.14510606
-0.040378388
-0.15327248
-0.041597975
-0.16194955
-0.042814995
-0.17117367
-0.044024084
-0.18098355
-0.045217543
-0.19142188
-0.046387674
-0.20253416
-0.047525846
-0.21436961
-0.22698164
9.8753199e-05
-0.0041346227
0.00042379952
-0.0047308375
0.00047252261
-0.0050073182
-0.00063996323
-0.0052790446
-0.0022866145
-0.0053620371
-0.003473666
-0.0055699709
-0.0042570456
-0.0057684244
-0.0045473797
-0.0060265499
-0.004701331
-0.0063099052
-0.0048246837
-0.0066144263
-0.0049552836
-0.0069344678
-0.0050933378
-0.0072702676
-0.0052384224
-0.0076224868
-0.005390296
-0.0079919934
-0.0055492465
-0.0083796645
-0.0057156007
-0.008786418
-0.0058897019
-0.0092132196
-0.0060719027
-0.009661091
-0.0062625343
-0.01013111
-0.0064620351
-0.010624375
-0.0066707505
-0.011142116
-0.0068891236
-0.011685565
-0.0071175511
-0.012256074
-0.0073564995
-0.012854996
-0.0076064355
-0.013483825
-0.0078678487
-0.014144123
-0.0081412059
-0.014837547
-0.0084270669
-0.015565776
-0.0087259215
-0.016330701
-0.0090383997
-0.017134209
-0.0093650147
-0.017978379
-0.0097063962
-0.018865378
-0.010063174
-0.019797424
-0.010435979
-0.020777036
-0.010825486
-0.021806732
-0.011232396
-0.022889174
-0.011657385
-0.024027322
-0.012101223
-0.025224164
-0.012564633
-0.026482964
-0.013048408
-0.027807107
-0.013553342
-0.029200253
-0.014080251
-0.030666253
-0.014629998
-0.032209189
-0.015203423
-0.033833422
-0.015801389
-0.035543596
-0.016424829
-0.037344585
-0.01707463
-0.039241639
-0.017751724
-0.041240357
-0.018457022
-0.043346639
-0.01919148
-0.045566809
-0.019956031
-0.047907608
-0.020751678
-0.050376197
-0.021579331
-0.052980299
-0.022439947
-0.055728031
-0.023334411
-0.058628234
-0.024263704
-0.061690124
-0.025228643
-0.064923824
-0.026230089
-0.068339973
-0.027268861
-0.07195
-0.028345726
-0.075766223
-0.02946134
-0.079801729
-0.030616331
-0.084070655
-0.031811213
-0.088588117
-0.033046383
-0.093370328
-0.034322143
-0.098434737
-0.035638611
-0.10380008
-0.036995715
-0.1094865
-0.038393178
-0.11551578
-0.039830881
-0.12191082
-0.041307541
-0.12869739
-0.042822693
-0.135902
-0.04437447
-0.14355428
-0.045961472
-0.15168548
-0.047581833
-0.16032919
-0.04923252
-0.16952298
-0.050910501
-0.17930556
-0.05261181
-0.18972057
-0.054332482
-0.20081349
-0.05606715
-0.21263494
-0.22523904
4.4430703e-05
-0.0040325454
0.00044863426
-0.0046708986
0.00057492463
-0.004960567
-0.00061535376
-0.0052437159
-0.0023578319
-0.005286263
-0.0036313111
-0.0054808512
-0.0044859166
-0.0056576543
-0.0048063086
-0.0059051329
-0.0049744568
-0.0061804449
-0.0051071038
-0.0064786165
-0.0052473408
-0.0067922332
-0.0053956293
-0.0071213434
-0.0055515617
-0.0074665484
-0.005714853
-0.007828714
-0.0058858202
-0.0082087008
-0.0060648204
-0.0086074178
-0.0062522256
-0.0090258143
-0.0064484279
-0.0094648887
-0.0066538377
-0.0099257002
-0.0068688516
-0.010409361
-0.0070939432
-0.010917025
-0.0073295557
-0.011449952
-0.0075761557
-0.012009474
-0.0078342798
-0.012596872
-0.0081044177
-0.013213687
-0.0083871061
-0.013861435
-0.0086829747
-0.014541678
-0.0089925369
-0.015256214
-0.0093164458
-0.016006792
-0.0096553313
-0.016795324
-0.01000987
-0.01762384
-0.010380785
-0.018494463
-0.010768705
-0.019409503
-0.011174496
-0.020371246
-0.011598878
-0.02138235
-0.012042646
-0.022445406
-0.012506686
-0.023563282
-0.012991815
-0.024739035
-0.013499011
-0.025975768
-0.014029186
-0.027276932
-0.014583296
-0.028646144
-0.015162343
-0.030087206
-0.0157674
-0.031604131
-0.016399518
-0.033201304
-0.017059816
-0.034883298
-0.017749461
-0.03665494
-0.018469619
-0.038521481
-0.019221503
-0.040488473
-0.020006396
-0.042561746
-0.020825558
-0.044747647
-0.021680341
-0.047052824
-0.02257203
-0.049484509
-0.023502093
-0.052050236
-0.024471883
-0.05475824
-0.025482894
-0.057617223
-0.026536526
-0.060636493
-0.027634317
-0.063826033
-0.028777737
-0.067196552
-0.02996828
-0.070759457
-0.031207532
-0.074526971
-0.032496939
-0.078512322
-0.033838041
-0.082729553
-0.035232354
-0.087193804
-0.036681348
-0.091921334
-0.038186422
-0.096929663
-0.039748999
-0.1022375
-0.041370433
-0.10786507
-0.043052077
-0.11383414
-0.04479484
-0.12016806
-0.046599958
-0.12689227
-0.048468296
-0.13403367
-0.050400785
-0.14162179
-0.052397893
-0.14968837
-0.054459619
-0.15826747
-0.056586897
-0.1673957
-0.058778793
-0.17711367
-0.061035541
-0.18746382
-0.063355508
-0.19849352
-0.065737994
-0.21025245
-0.22279637
-2.916673e-05
-0.003928818
0.0004704421
-0.0046084738
0.00067084457
-0.0049132546
-0.00059133609
-0.0052106804
-0.002426958
-0.0052068662
-0.003788118
-0.0053865049
-0.0047173496
-0.0055383003
-0.0050711183
-0.0057736187
-0.0052561887
-0.0060398907
-0.0054005686
-0.0063310881
-0.0055529475
-0.0066376757
-0.0057140904
-0.0069594738
-0.0058836199
-0.0072970073
-0.0060612145
-0.0076511323
-0.0062472101
-0.0080227092
-0.0064420151
-0.0084126129
-0.0066460415
-0.0088217878
-0.0068597234
-0.0092512068
-0.0070835156
-0.0097019079
-0.0073178918
-0.010174985
-0.0075633254
-0.010671591
-0.007820353
-0.011192925
-0.0080895344
-0.011740292
-0.008371383
-0.012315023
-0.0086665285
-0.012918541
-0.0089755775
-0.013552386
-0.0092991598
-0.014218096
-0.0096379753
-0.014917399
-0.0099927238
-0.015652043
-0.010364128
-0.016423919
-0.010752936
-0.017235033
-0.011159986
-0.018087414
-0.011586094
-0.018983394
-0.012032125
-0.019925215
-0.012499011
-0.020915464