/*--------------------------------*- C++ -*----------------------------------*\
| =========                 |                                                 |
| \\      /  F ield         | OpenFOAM: The Open Source CFD Toolbox           |
|  \\    /   O peration     | Version:  2406                                  |
|   \\  /    A nd           | Website:  www.openfoam.com                      |
|    \\/     M anipulation  |                                                 |
\*---------------------------------------------------------------------------*/
FoamFile
{
    version     2.0;
    format      ascii;
    arch        "LSB;label=32;scalar=64";
    class       volVectorField;
    location    "3e-05";
    object      U;
}
// * * * * * * * * * * * * * * * * * * * * * * * * * * * * * * * * * * * * * //

dimensions      [0 1 -1 0 0 0 0];

internalField   nonuniform List<vector> 
16000
(
(20.106915 -5.9671589e-23 -0.13266685)
(20.05435 2.5685883e-21 -0.17953516)
(20.052635 8.2917768e-23 -0.064224494)
(20.017538 -2.3604583e-22 -0.10675264)
(20.008852 1.0272611e-21 -0.029190173)
(20.001349 -8.1926306e-22 -0.018766797)
(20.00031 1.4352026e-22 -0.0016710554)
(19.99997 8.3406632e-24 -0.00040539345)
(19.999993 7.7696552e-24 0.0001748455)
(19.999997 -1.5344156e-24 2.6547298e-05)
(20 -1.881588e-27 5.6777963e-06)
(20 -2.0683693e-26 -9.1717029e-07)
(20 -2.1448508e-26 -2.0072941e-07)
(20 -2.3754081e-28 -2.1265858e-08)
(20 -2.4676229e-28 3.9113013e-09)
(20 -1.4539983e-28 7.5682476e-10)
(20 -5.3704972e-30 2.3282835e-11)
(20 -4.2011847e-32 -1.2101278e-11)
(20 1.0663798e-31 -1.5000239e-12)
(20 -2.2549655e-32 5.0066126e-13)
(20 5.8950407e-33 6.4307318e-13)
(20 -4.2572453e-33 -2.0195797e-13)
(20 -3.0334171e-33 -1.4282001e-12)
(20 5.6184479e-34 2.5610578e-14)
(20 1.8361841e-33 8.8354401e-13)
(20 7.8680931e-33 7.1957109e-13)
(20 5.2969021e-33 -5.4065397e-13)
(20 1.0707259e-32 -1.5780549e-12)
(20 -1.8073281e-34 3.8233112e-13)
(20 2.2794117e-34 6.6600569e-13)
(20 0 -8.2766524e-13)
(20 -4.7590559e-33 1.1166438e-12)
(20 -2.8763403e-33 2.2269543e-13)
(20 7.4906359e-33 2.0923335e-13)
(20 -9.0168339e-33 -5.2145411e-13)
(20 4.723515e-33 -1.2697373e-12)
(20 -6.3620374e-33 1.4293434e-12)
(20 1.9684433e-33 5.4152277e-14)
(20 -3.8945732e-33 -9.9904648e-13)
(20 1.4734007e-32 9.2487171e-13)
(20 -9.2751101e-33 9.4722217e-13)
(20 -1.1923229e-33 2.4007633e-13)
(20 -8.084982e-33 -1.1336359e-12)
(20 -1.2532256e-34 -2.2138085e-12)
(20 3.6527928e-34 1.3667293e-12)
(20 -1.0777414e-34 1.3091581e-12)
(20 -3.1045793e-34 -1.5842836e-13)
(20 -5.8372035e-34 -7.7123475e-13)
(20 -1.5578375e-33 -3.9806492e-13)
(20 -4.6007325e-34 6.4611304e-13)
(20 3.053415e-34 8.3361865e-13)
(20 -1.7949969e-34 -8.701857e-14)
(20 5.0782701e-34 -3.0981022e-13)
(20 -7.0402922e-33 -5.408217e-13)
(20 3.6605706e-33 -1.1634711e-12)
(20 -1.0705882e-32 8.0567069e-13)
(20 -9.6251674e-34 9.5504538e-13)
(20 7.3944907e-34 1.6098169e-13)
(20 2.8585199e-33 -1.7780499e-14)
(20 -5.6531496e-33 -8.5121562e-13)
(20 1.2762589e-33 -1.7355198e-13)
(20 -1.8809951e-33 8.3456877e-13)
(20 -1.7587501e-33 5.7302205e-13)
(20 -8.1912638e-34 -5.3871227e-13)
(20 -9.1371224e-34 -1.4981931e-14)
(20 -9.8740014e-34 5.4852319e-13)
(20 1.0361607e-33 -4.5900014e-13)
(20 -3.0379672e-33 2.0088868e-14)
(20 2.6021533e-33 1.7584455e-13)
(20 0 9.4663306e-14)
(20 5.9509549e-34 3.7825598e-13)
(20 -4.4371753e-33 -5.6888293e-13)
(20 5.6565797e-34 -4.9289555e-13)
(20 2.8020191e-35 1.7011704e-13)
(20 2.8588587e-34 2.5527908e-13)
(20 -3.7845371e-33 -3.5663351e-14)
(20 -4.127374e-33 -5.3634761e-13)
(20 0 -1.7913261e-13)
(20 8.1898103e-34 1.6038711e-13)
(20 8.9058058e-33 1.3705879e-13)
(20.04037 6.7456599e-22 -0.30961626)
(20.04471 3.2059602e-21 -0.47304783)
(20.042823 3.9508308e-21 -0.2431465)
(20.008434 1.1292049e-20 -0.31897611)
(20.004077 -6.3953434e-21 -0.11604102)
(19.999428 -5.6368988e-21 -0.067712329)
(19.999797 7.1767957e-22 -0.01261318)
(19.999888 2.0677234e-23 -0.0030427003)
(19.999997 -9.5278058e-24 0.00016915377)
(20.000001 1.3414762e-24 7.3064974e-05)
(20.000001 3.743527e-24 3.2239435e-05)
(20 -1.6932386e-25 1.42555e-06)
(20 -3.2650392e-26 -2.2279354e-07)
(20 7.7211642e-27 -1.2372374e-07)
(20 -1.0006016e-27 -8.3807163e-09)
(20 2.0338517e-31 8.7331827e-10)
(20 1.7241918e-29 3.0539331e-10)
(20 -1.6739724e-30 1.3393036e-11)
(20 1.44585e-31 -4.1014511e-12)
(20 -3.1143845e-32 -6.860692e-13)
(20 9.9203804e-34 -1.4600814e-13)
(20 3.4066016e-33 7.7450544e-13)
(20 0 4.5975059e-13)
(20 9.881989e-34 2.0671838e-13)
(20 4.3561227e-33 5.0537999e-13)
(20 -5.6953361e-33 9.7201175e-13)
(20 -3.0382865e-34 7.7068559e-14)
(20 1.7513165e-33 -6.8885618e-13)
(20 -1.6633208e-34 2.279144e-13)
(20 -3.0470663e-34 2.2684152e-13)
(20 6.0933849e-33 -1.2265304e-12)
(20 -4.5009447e-34 9.8933722e-13)
(20 1.0917879e-33 8.5796177e-13)
(20 2.1773979e-34 -1.1809863e-12)
(20 -4.4709297e-34 -4.7008088e-13)
(20 7.1509408e-35 8.6937423e-13)
(20 -3.6248993e-33 1.3974363e-12)
(20 -2.4233083e-33 -9.8297467e-13)
(20 -2.5459308e-33 -1.9226319e-13)
(20 -9.5603036e-34 4.2600545e-13)
(20 -2.310647e-33 3.8780431e-13)
(20 8.0042935e-34 -6.6956763e-13)
(20 -2.4530822e-34 2.0788229e-14)
(20 -1.440174e-32 1.7397794e-12)
(20 3.8459648e-34 -3.8424857e-13)
(20 -1.8601498e-32 -2.2902885e-12)
(20 -1.5829446e-33 -2.3545187e-13)
(20 -2.1541732e-34 3.5821593e-15)
(20 2.6860668e-33 3.2461854e-13)
(20 4.276112e-34 4.0848148e-13)
(20 2.3496777e-33 -2.4816351e-13)
(20 -5.4552504e-34 3.625496e-14)
(20 -1.6711713e-33 -1.36877e-13)
(20 4.7945997e-34 1.3517933e-12)
(20 -2.1618712e-34 -1.8135368e-13)
(20 -1.6641878e-34 -6.0266885e-13)
(20 1.2666938e-33 8.0284491e-13)
(20 0 -1.6700633e-13)
(20 -7.2986873e-34 -8.8040088e-13)
(20 1.3416861e-34 -5.6371076e-13)
(20 -2.8587168e-33 3.1280136e-13)
(20 -1.6911217e-33 7.0296975e-13)
(20 -9.084685e-34 -5.0848527e-13)
(20 -2.7506634e-33 -4.9867657e-13)
(20 -7.355661e-34 3.2350123e-13)
(20 6.6088087e-34 1.1620374e-13)
(20 2.2485426e-34 2.3689239e-13)
(20 4.0206396e-33 3.2232627e-13)
(20 -2.9219966e-33 1.5984029e-13)
(20 2.3220318e-33 -5.0242491e-14)
(20 -1.7857165e-33 4.0679972e-13)
(20 1.0566807e-33 2.6973223e-13)
(20 1.0415333e-33 -6.8398864e-13)
(20 4.9905135e-35 -3.4450236e-13)
(20 4.0619396e-34 2.5717094e-13)
(20 8.3694826e-35 -2.7605426e-14)
(20 -1.4267701e-33 1.7258561e-14)
(20 2.0197339e-33 -3.5241131e-14)
(20 -1.0689989e-33 -2.4463129e-13)
(20 6.0247466e-34 8.8479296e-14)
(19.907126 -1.5375845e-21 -0.51220394)
(20.029227 -5.6344509e-22 -0.79217314)
(20.028668 -3.8039971e-21 -0.42106975)
(19.993637 8.593424e-21 -0.55193)
(19.996465 5.0984371e-22 -0.20828088)
(19.995087 3.9799058e-21 -0.12646796)
(19.998582 1.6680987e-21 -0.027097786)
(19.999637 -4.7990234e-22 -0.0066934122)
(19.999993 0 7.6010713e-05)
(20.000009 -1.6680803e-26 0.00011917886)
(20.000004 5.8786936e-27 6.2160277e-05)
(20 -4.074415e-25 3.9297906e-06)
(20 2.4840875e-26 -2.0839548e-07)
(20 -2.2084982e-26 -2.1694612e-07)
(20 3.5528523e-27 -1.9872014e-08)
(20 7.9570395e-29 7.6268577e-10)
(20 2.7009797e-29 5.0229217e-10)
(20 -3.6271453e-30 3.7992769e-11)
(20 -1.7552669e-35 -3.5896929e-12)
(20 -5.6671244e-32 -2.9086984e-12)
(20 -2.0644637e-33 6.2737506e-13)
(20 5.1212632e-36 1.9197265e-12)
(20 -1.8051172e-35 1.428291e-12)
(20 3.2955519e-33 -3.6654859e-13)
(20 5.3810123e-33 -9.7251106e-13)
(20 -2.0897974e-34 -7.2920098e-14)
(20 -2.328218e-34 9.7031354e-14)
(20 -4.7037006e-35 4.8222781e-13)
(20 -3.7805639e-33 -6.8048831e-13)
(20 -9.3229899e-34 -3.2967022e-13)
(20 -1.6010608e-33 2.0906914e-13)
(20 -7.6203373e-33 1.0605807e-12)
(20 2.1085722e-34 5.2064574e-13)
(20 1.0517002e-33 1.2389123e-13)
(20 7.112678e-33 5.9054129e-13)
(20 -9.9336979e-34 -1.9549412e-13)
(20 1.2272806e-32 -1.1923619e-12)
(20 -4.7889131e-33 -1.2084261e-12)
(20 -2.2505762e-34 -1.2286411e-13)
(20 3.6259753e-33 -1.1564066e-13)
(20 1.8285839e-33 8.5161128e-13)
(20 -1.0550825e-33 8.9412056e-13)
(20 -6.8630503e-34 -2.6028548e-13)
(20 1.2024741e-33 1.0439469e-14)
(20 -2.0618578e-33 -5.3675448e-13)
(20 -2.4581363e-34 -1.0877483e-12)
(20 -5.726481e-33 1.112168e-12)
(20 -5.9242965e-33 1.2239977e-12)
(20 -5.3368594e-33 1.7790139e-13)
(20 3.2113829e-35 -4.4825618e-13)
(20 -2.8933771e-35 -1.5861845e-12)
(20 1.720509e-35 6.4652743e-14)
(20 4.1366696e-33 9.5924881e-13)
(20 1.9024912e-33 4.2188503e-13)
(20 2.4740772e-33 -6.5067686e-13)
(20 -2.7022366e-33 3.3732262e-14)
(20 6.1476273e-33 1.5502221e-12)
(20 2.0717372e-33 -1.0046459e-12)
(20 3.5181696e-33 -1.2237729e-12)
(20 7.7982085e-35 7.4545078e-13)
(20 -2.3328805e-33 -3.1730592e-13)
(20 1.0821e-33 -3.6461629e-13)
(20 -4.5511428e-34 4.9609531e-14)
(20 -1.3808514e-33 5.2335607e-14)
(20 9.2472431e-34 -6.2640967e-14)
(20 3.7824385e-33 4.8339298e-13)
(20 5.0165698e-34 5.0580165e-13)
(20 -6.7908404e-33 -7.3921495e-13)
(20 5.6613922e-33 -2.2739389e-15)
(20 5.1979035e-35 5.9693866e-13)
(20 8.2950412e-34 -3.659039e-13)
(20 -2.9844765e-34 -8.9954077e-14)
(20 1.5403204e-35 9.2488151e-14)
(20 1.0124851e-35 -5.7176903e-14)
(20 7.6790593e-34 2.2565331e-13)
(20 -1.4870946e-35 8.2149217e-14)
(20 2.5618739e-33 -1.2855625e-13)
(20 -7.108041e-35 8.9919814e-16)
(20 3.9767931e-34 1.1563546e-13)
(20 1.0308429e-33 -1.1962064e-13)
(19.722019 -2.9604633e-21 -0.68837341)
(20.009077 -8.3460788e-22 -1.0888897)
(20.009646 -5.0315355e-22 -0.62338145)
(19.973044 1.0958783e-21 -0.80644)
(19.985538 -6.6846072e-22 -0.31161968)
(19.98877 5.8852334e-22 -0.19384427)
(19.996858 -4.4422973e-21 -0.043461949)
(19.999263 -6.4205848e-23 -0.011024497)
(19.999985 5.2536514e-24 -1.836076e-05)
(20.000018 1.801321e-25 0.00017043305)
(20.000008 -5.3595897e-24 9.7296466e-05)
(20.000001 6.2507969e-26 7.0025942e-06)
(20 -5.571999e-26 -1.8964534e-07)
(20 -8.728211e-30 -3.3777904e-07)
(20 -1.91736e-30 -3.406813e-08)
(20 -6.293988e-31 8.0110977e-10)
(20 -3.6041994e-29 7.8319576e-10)
(20 -5.4482062e-31 6.475859e-11)
(20 5.4366287e-33 -3.7744229e-12)
(20 5.6675702e-33 -1.0316743e-12)
(20 -8.4863044e-33 -3.0989462e-13)
(20 -2.9212692e-34 -1.1536172e-12)
(20 6.641836e-33 9.0892505e-13)
(20 -3.9051852e-34 5.277031e-14)
(20 1.5682854e-33 -1.7802794e-13)
(20 7.1783661e-33 1.5422007e-12)
(20 -1.8566315e-34 -6.8199596e-13)
(20 5.1316066e-33 -1.0568944e-12)
(20 5.6781959e-34 3.1034776e-13)
(20 -1.8764332e-34 1.7193628e-13)
(20 -4.3494357e-35 2.1241807e-13)
(20 4.3687022e-34 2.6843708e-14)
(20 -6.6153568e-33 7.0421572e-13)
(20 -1.2414158e-33 1.8408966e-13)
(20 1.0729611e-33 8.9416867e-13)
(20 -4.1682586e-33 -4.9013152e-13)
(20 5.7680854e-34 -1.7322084e-12)
(20 1.7782042e-33 9.1860094e-13)
(20 -1.0899999e-33 -5.4234964e-13)
(20 1.2999739e-33 -7.4474458e-13)
(20 2.9851209e-33 -4.8733694e-13)
(20 2.1169672e-33 6.29903e-13)
(20 -1.0563811e-33 5.9189455e-13)
(20 8.8067916e-34 -1.0670251e-12)
(20 -4.7492797e-33 -2.3316747e-13)
(20 1.5945117e-33 1.2019501e-12)
(20 -1.4401439e-33 1.1934583e-12)
(20 -9.9146873e-33 9.1352762e-13)
(20 9.6794813e-34 -1.2357835e-14)
(20 -2.0091932e-32 -2.1339769e-12)
(20 2.0764787e-33 -5.9450095e-13)
(20 -6.8645769e-34 1.7464474e-12)
(20 2.7161165e-35 -2.3271462e-13)
(20 5.8862605e-34 -3.4360732e-13)
(20 -3.5859005e-33 -2.6384074e-13)
(20 1.3177121e-33 -1.7356309e-13)
(20 -1.3940445e-33 1.0702734e-12)
(20 2.2136568e-33 -1.3900199e-13)
(20 4.9647565e-34 2.6297777e-13)
(20 1.0085139e-33 -2.0267304e-14)
(20 2.1764161e-33 -5.991103e-13)
(20 -2.4115238e-33 -1.9893489e-13)
(20 6.2674886e-34 -6.3750095e-14)
(20 1.7483649e-33 -1.6237369e-13)
(20 8.3303146e-34 3.4402622e-13)
(20 1.2801311e-33 3.7682068e-13)
(20 8.8673775e-35 -6.2400866e-13)
(20 1.7615104e-33 -3.5164459e-13)
(20 -3.9576715e-33 6.3986275e-13)
(20 3.8913829e-34 5.5735649e-13)
(20 -3.4860826e-35 -2.7159119e-13)
(20 -4.8261661e-36 -2.307727e-13)
(20 1.4876275e-34 -7.9369198e-14)
(20 -5.1922826e-34 -2.1270819e-13)
(20 3.6900361e-35 -2.4230169e-13)
(20 6.4095813e-34 1.9810225e-13)
(20 -2.0765951e-33 2.3302338e-13)
(20 -1.4549459e-33 -1.1305421e-13)
(20 -1.8897257e-34 -5.6560961e-14)
(20 -1.1099124e-34 3.4234159e-14)
(19.491189 -4.7647693e-21 -0.85407302)
(19.980603 -1.3147808e-20 -1.3832319)
(19.98559 0 -0.83873451)
(19.945195 1.9104569e-23 -1.0800874)
(19.971353 1.7924723e-20 -0.42519088)
(19.980308 9.9991489e-21 -0.26981672)
(19.994495 -1.18171e-20 -0.062799782)
(19.998712 -2.7237106e-22 -0.01635022)
(19.999967 2.8485875e-22 -0.00020569025)
(20.000028 -3.2627915e-27 0.00022122299)
(20.000013 6.0293917e-24 0.0001391737)
(20.000001 2.0484905e-24 1.1217785e-05)
(20 8.106449e-27 -8.0660628e-08)
(20 4.185481e-26 -4.8387435e-07)
(20 -3.5813003e-27 -5.3163611e-08)
(20 1.8577726e-28 5.632138e-10)
(20 -6.2909408e-29 1.1342592e-09)
(20 1.8407644e-29 1.0471003e-10)
(20 1.4393242e-31 -3.9164834e-12)
(20 7.552608e-32 -1.5309495e-12)
(20 1.2747434e-32 7.5744358e-13)
(20 1.9093414e-33 -4.2945332e-14)
(20 -1.4954491e-33 3.1009323e-14)
(20 -3.4843287e-33 2.7934889e-14)
(20 -1.6268503e-34 1.3334583e-13)
(20 -6.0488684e-34 1.5441715e-13)
(20 -1.5921235e-32 -1.8935688e-12)
(20 2.9784378e-34 5.5456785e-13)
(20 -5.8776787e-33 1.0603084e-12)
(20 6.211068e-33 -4.863327e-13)
(20 -8.4967337e-34 7.6687542e-13)
(20 2.2707779e-33 -1.3600987e-14)
(20 -3.9227094e-33 -6.377242e-14)
(20 2.2098578e-34 -1.0707552e-13)
(20 -7.8395966e-35 2.6518664e-13)
(20 -1.4044693e-34 -1.05239e-12)
(20 2.072626e-34 -5.9309974e-13)
(20 3.496821e-33 1.3703513e-12)
(20 -1.6428612e-34 -7.0087785e-13)
(20 -2.6988959e-34 -7.3776245e-14)
(20 -1.9917927e-34 -9.3724561e-13)
(20 5.2531476e-33 -5.4733832e-13)
(20 -2.7602221e-34 9.6458291e-13)
(20 4.6843943e-33 7.9066875e-14)
(20 -9.8992738e-34 4.3591569e-13)
(20 2.2004108e-33 8.1124453e-13)
(20 1.2928431e-33 1.0737645e-12)
(20 1.0890319e-33 4.5079458e-13)
(20 1.5815927e-33 -1.0448223e-12)
(20 2.7326145e-33 -8.5367337e-13)
(20 -2.1170467e-33 -6.5649441e-13)
(20 3.4286264e-34 -4.1997682e-13)
(20 -5.7123733e-34 3.9663018e-13)
(20 -3.0901499e-35 -4.7236389e-13)
(20 2.3084384e-33 1.7728629e-13)
(20 -2.0218402e-33 4.3927155e-13)
(20 4.7426041e-34 3.8388531e-13)
(20 -1.8147412e-33 -3.2397868e-14)
(20 1.6425623e-34 -3.890618e-14)
(20 3.2295836e-33 4.5149263e-13)
(20 1.7003194e-33 7.9828265e-14)
(20 1.9250197e-33 -5.872119e-13)
(20 3.6130744e-34 -2.612665e-13)
(20 1.2997094e-33 2.35624e-13)
(20 5.4802583e-34 -7.0044272e-14)
(20 1.1212689e-33 1.3093509e-13)
(20 -6.5602933e-34 -4.9787836e-14)
(20 -3.8746456e-34 1.4689443e-13)
(20 3.1281507e-34 2.4414542e-13)
(20 3.7335597e-34 7.128625e-14)
(20 1.4997425e-33 -8.0220094e-14)
(20 7.721696e-35 -7.3368084e-14)
(20 -4.3363843e-34 2.5905896e-13)
(20 -6.4560343e-34 -1.8569137e-13)
(20 -6.1235545e-35 -8.0504888e-14)
(20 4.1339112e-33 -1.8631291e-13)
(20 2.0794855e-33 -1.6507926e-13)
(20 -9.485819e-35 1.2154347e-13)
(20 5.3423324e-34 -1.5651887e-13)
(20 -2.5012814e-35 1.1567332e-13)
(19.214741 -2.0008928e-22 -1.0114555)
(19.945121 1.5261232e-20 -1.6812655)
(19.955877 -8.4322362e-21 -1.0664889)
(19.909049 -5.935653e-23 -1.3740509)
(19.953378 -2.6622476e-23 -0.54875761)
(19.969082 1.4575358e-23 -0.35497168)
(19.991295 2.9696545e-24 -0.085352082)
(19.99792 -2.5211713e-21 -0.02278395)
(19.999932 -1.4822422e-22 -0.0005075633)
(20.00004 9.8426832e-24 0.00026868973)
(20.00002 -1.599733e-23 0.00018816509)
(20.000002 1.219508e-24 1.6769821e-05)
(20 2.7565718e-25 1.4936355e-07)
(20 7.5821498e-26 -6.5592626e-07)
(20 6.7933094e-27 -7.779875e-08)
(20 -1.5194959e-27 -6.7909879e-11)
(20 1.1601105e-29 1.5558198e-09)
(20 -3.6988766e-29 1.5668381e-10)
(20 -2.9848467e-32 -4.9800549e-12)
(20 -1.2112263e-31 -2.7706921e-12)
(20 -1.4524497e-35 -1.4679615e-13)
(20 -1.0463915e-34 9.4055644e-13)
(20 3.5173503e-35 6.1638842e-14)
(20 -9.0181744e-35 -5.4139177e-14)
(20 4.1475585e-33 -3.4059205e-13)
(20 1.7164709e-33 3.1456498e-13)
(20 -1.25711e-35 -5.8103065e-13)
(20 5.7806204e-35 -3.5781512e-13)
(20 3.0198589e-33 1.0026824e-12)
(20 1.2006559e-33 -2.194375e-13)
(20 -1.5701013e-35 3.4129544e-15)
(20 -2.3712237e-35 2.5229773e-13)
(20 -3.0930472e-33 4.1510272e-13)
(20 -7.6781026e-35 -4.8700617e-13)
(20 4.4655803e-35 1.78763e-13)
(20 -3.2488582e-33 1.1389556e-12)
(20 -6.7464712e-34 -6.0798489e-13)
(20 -4.4555672e-33 -7.6090111e-14)
(20 1.3168701e-34 -7.982692e-13)
(20 3.4972606e-33 -9.4120558e-13)
(20 -2.9085012e-34 1.077237e-12)
(20 2.2165234e-32 1.0583485e-12)
(20 3.6540999e-33 4.0691424e-13)
(20 1.0358852e-32 -4.4225487e-13)
(20 -4.2349887e-33 8.5787399e-14)
(20 -6.2306666e-34 1.0195866e-13)
(20 4.9178036e-33 4.5616915e-14)
(20 -9.2151082e-34 3.5100588e-13)
(20 6.4533284e-34 -1.0139716e-12)
(20 -1.2425828e-33 -6.8921513e-13)
(20 -3.455965e-36 1.4153028e-13)
(20 3.8360716e-33 3.6721423e-13)
(20 -5.1547195e-34 -1.4952478e-13)
(20 5.8983058e-33 -1.0122361e-12)
(20 -1.6700096e-34 1.1978257e-13)
(20 2.5609513e-33 1.5231932e-12)
(20 1.4494168e-33 6.4499211e-13)
(20 4.374439e-33 -9.0493692e-13)
(20 -7.1242077e-34 -2.9022637e-13)
(20 3.9527023e-33 9.6941129e-13)
(20 1.9449588e-33 1.875691e-13)
(20 -1.088456e-33 -6.1135128e-13)
(20 3.6412508e-33 -4.7878225e-13)
(20 -1.8599296e-34 5.9818226e-14)
(20 2.8480686e-35 3.4762338e-13)
(20 -1.8646104e-34 -2.8155897e-13)
(20 -9.3323662e-34 -5.9459399e-13)
(20 -1.1380727e-33 2.568941e-13)
(20 -1.5493323e-35 3.4933178e-13)
(20 8.7841874e-34 1.3926901e-15)
(20 5.125049e-34 -2.414474e-13)
(20 4.0106505e-34 2.6660034e-13)
(20 6.8268182e-34 2.6822607e-13)
(20 3.6630989e-34 -3.0494864e-13)
(20 1.44362e-34 1.3118088e-13)
(20 -1.0945836e-33 1.3102412e-13)
(20 -1.4514642e-33 -5.3045477e-15)
(20 9.1853915e-35 1.1388287e-13)
(20 -4.4037749e-34 -2.3108823e-13)
(20 3.2333241e-34 -1.0280584e-13)
(18.895942 8.4415763e-21 -1.1591126)
(19.901757 2.027645e-20 -1.9863314)
(19.919301 1.7608091e-20 -1.3069569)
(19.86339 2.2614314e-20 -1.6880445)
(19.930931 -2.6500128e-20 -0.68261351)
(19.954575 -1.363572e-20 -0.44942201)
(19.987083 -1.1935048e-23 -0.11120493)
(19.996827 -1.0524781e-24 -0.030380704)
(19.999874 1.6909339e-22 -0.00094032557)
(20.000054 1.7932488e-23 0.0003102783)
(20.00003 -8.9529998e-25 0.00024437211)
(20.000003 1.6378344e-25 2.3784503e-05)
(20 1.6231133e-25 5.2762878e-07)
(20 -5.7889182e-27 -8.5381103e-07)
(20 1.2964964e-27 -1.0842931e-07)
(20 -6.366451e-28 -1.2072179e-09)
(20 -6.5837411e-30 2.0441926e-09)
(20 -1.3894811e-29 2.2347361e-10)
(20 -9.1126511e-32 -5.6153955e-12)
(20 -3.1219124e-31 -2.8152018e-12)
(20 1.879237e-32 -3.4058065e-13)
(20 -1.2997097e-33 1.6780727e-13)
(20 4.8438979e-35 9.5942705e-13)
(20 -4.0354096e-33 6.6428555e-13)
(20 -1.3405438e-32 -7.1401505e-13)
(20 -1.850854e-32 -7.9823189e-13)
(20 1.8461161e-33 -8.7673606e-13)
(20 2.6411165e-33 -1.0871401e-12)
(20 8.4131136e-33 1.2528843e-12)
(20 1.5255208e-33 1.1360329e-12)
(20 3.4654249e-33 -8.6806466e-13)
(20 -1.0707748e-33 2.9976882e-13)
(20 -1.5699912e-33 1.7266194e-13)
(20 2.8603079e-33 -7.4301376e-13)
(20 2.6474769e-34 3.9656714e-13)
(20 -3.4467227e-33 9.4873478e-13)
(20 1.9930834e-34 -3.9201115e-13)
(20 8.0940591e-33 1.0698627e-12)
(20 -9.0972294e-33 1.126631e-12)
(20 4.7283763e-34 -2.2247743e-12)
(20 -6.1923789e-34 7.5223634e-14)
(20 0 2.1680617e-12)
(20 3.4209502e-33 -1.8982953e-13)
(20 2.1948259e-33 -6.1001491e-13)
(20 5.4746402e-35 7.0318984e-13)
(20 2.6384672e-33 -5.3605638e-13)
(20 1.7769491e-33 -6.1049331e-13)
(20 -7.7314972e-34 1.7144663e-13)
(20 -3.7857616e-33 -3.6192938e-13)
(20 2.923358e-33 1.6487252e-13)
(20 -6.1351717e-34 -3.1004528e-13)
(20 8.9046817e-35 -2.6934759e-13)
(20 1.8565339e-33 6.3833945e-13)
(20 -1.4326166e-33 1.6644195e-13)
(20 2.4109303e-33 -8.9127973e-13)
(20 2.6750139e-33 -6.7366324e-13)
(20 3.6494739e-33 1.8867799e-13)
(20 -2.125512e-33 4.1120851e-13)
(20 2.2387802e-33 2.8308619e-13)
(20 -2.2105388e-34 1.6187875e-13)
(20 -4.6643111e-33 7.1233715e-13)
(20 8.1248853e-34 3.0896761e-13)
(20 -1.5905124e-33 -4.0429141e-13)
(20 -2.770761e-33 -6.6444661e-14)
(20 -4.4770622e-34 3.0702951e-13)
(20 -1.1743804e-33 -1.2162493e-13)
(20 -2.0631622e-34 -4.2377198e-13)
(20 1.1464598e-33 -1.7900478e-14)
(20 -3.453864e-34 1.1780137e-14)
(20 1.3121814e-33 2.1232355e-13)
(20 1.0011432e-34 1.0251511e-13)
(20 -2.8151224e-33 -2.375529e-13)
(20 4.4753639e-34 -8.6738287e-14)
(20 -1.492992e-34 -6.0033202e-14)
(20 1.5382632e-33 1.9565638e-13)
(20 1.2981648e-34 2.0160489e-14)
(20 -1.205774e-33 -6.0627882e-14)
(20 -3.3386128e-35 -5.7504496e-14)
(20 -4.4437087e-34 3.2386886e-13)
(20 1.5399663e-34 -1.2955318e-13)
(18.53949 2.1267709e-20 -1.295403)
(19.849534 4.0722842e-21 -2.299997)
(19.875289 1.1671676e-20 -1.5590263)
(19.806964 -4.3724258e-20 -2.021106)
(19.903432 -1.5739361e-20 -0.82662967)
(19.936269 4.3459485e-20 -0.55308898)
(19.981681 1.2276672e-20 -0.14039918)
(19.995368 -4.048554e-21 -0.039177348)
(19.999783 -2.4021586e-22 -0.0015187528)
(20.000068 -1.3514752e-23 0.00034353299)
(20.000042 -9.9763021e-24 0.00030779349)
(20.000005 -2.6106671e-24 3.2358287e-05)
(20 2.2997726e-26 1.0799242e-06)
(20 -3.2415382e-26 -1.0768614e-06)
(20 -1.009117e-26 -1.4545416e-07)
(20 1.5704892e-27 -2.9616301e-09)
(20 -8.6583247e-30 2.5975887e-09)
(20 2.1249865e-29 3.0652644e-10)
(20 -1.5620344e-30 -3.8900577e-12)
(20 1.9689198e-31 -3.972877e-12)
(20 -7.5445611e-32 -1.588338e-12)
(20 4.1950085e-34 -1.377614e-13)
(20 -9.0074161e-33 1.4559877e-12)
(20 -4.5858556e-33 -5.2632912e-13)
(20 -1.5247129e-34 -6.0209225e-13)
(20 -3.8667363e-33 7.6466702e-13)
(20 -5.0300639e-33 1.3890669e-12)
(20 1.4493712e-33 2.5678522e-13)
(20 -3.5423776e-33 -1.0045536e-12)
(20 -7.4101453e-34 2.8996289e-13)
(20 8.6613584e-35 -1.8026842e-13)
(20 2.8347998e-33 -1.1020885e-12)
(20 -3.8363198e-33 2.6650002e-13)
(20 5.5444349e-33 9.0715591e-13)
(20 -1.0855625e-34 4.0034405e-13)
(20 2.3855227e-33 -5.8032611e-14)
(20 5.8621726e-34 -9.14001e-14)
(20 -3.620026e-33 3.3524995e-13)
(20 1.134202e-33 -7.1354066e-13)
(20 -7.7607368e-33 -2.1687766e-12)
(20 -4.334512e-33 -6.8093367e-13)
(20 -4.0486354e-33 1.7746409e-12)
(20 1.2664544e-33 5.8354505e-14)
(20 2.1328278e-33 5.6360261e-13)
(20 6.1588475e-34 3.5689389e-12)
(20 1.9191513e-33 -6.049879e-13)
(20 4.4168819e-33 -2.2473244e-12)
(20 9.3380752e-33 1.2515695e-12)
(20 7.4306767e-34 -9.9509583e-14)
(20 2.4508644e-33 -1.0908503e-12)
(20 1.7933885e-33 -7.0072418e-13)
(20 1.4073496e-34 -1.2976659e-13)
(20 -3.8292264e-33 7.0854998e-13)
(20 3.1565566e-33 6.331151e-13)
(20 -1.3473674e-33 -1.0286583e-13)
(20 3.9402116e-33 -1.0282427e-12)
(20 -2.9473388e-33 -4.5827818e-13)
(20 2.1045867e-33 4.0305238e-13)
(20 -5.0109973e-34 2.0947785e-13)
(20 1.9093342e-33 -5.8073078e-13)
(20 -3.1652141e-35 -2.1009986e-16)
(20 -3.8131069e-33 1.4392064e-13)
(20 1.2532829e-33 -4.0337574e-13)
(20 4.4445998e-33 9.1808424e-13)
(20 8.0299449e-35 2.6156125e-13)
(20 6.8528771e-34 -2.5124685e-13)
(20 4.1374993e-34 1.8615115e-13)
(20 5.5840419e-34 3.8461256e-13)
(20 2.6698928e-33 -4.4232313e-13)
(20 -3.9373059e-34 1.280662e-13)
(20 -9.0034157e-35 1.0020326e-12)
(20 6.8976952e-34 -1.7589802e-13)
(20 -3.1414714e-34 -4.7437591e-13)
(20 1.606157e-33 -1.9562513e-13)
(20 -1.9618553e-34 -6.1755798e-14)
(20 1.9294754e-35 -3.325963e-14)
(20 1.5044028e-33 -8.1722924e-14)
(20 -1.9334773e-34 9.0574526e-14)
(20 -5.1228183e-34 1.5112952e-13)
(20 -2.0125894e-33 -1.7676019e-15)
(18.149794 -1.2105621e-20 -1.4200175)
(19.787609 -2.6759274e-20 -2.6251522)
(19.823287 -1.0597821e-20 -1.82247)
(19.738369 -2.1360312e-21 -2.373965)
(19.870253 1.5144537e-21 -0.98083733)
(19.913565 3.1343281e-20 -0.66613624)
(19.97488 2.0500513e-20 -0.17303399)
(19.993466 -2.2868679e-21 -0.049227003)
(19.999652 -5.7590226e-22 -0.0022578219)
(20.000083 -1.8557608e-24 0.00036616992)
(20.000057 -1.1992471e-24 0.00037851816)
(20.000007 2.527692e-25 4.2584347e-05)
(20 -2.9504304e-26 1.8314885e-06)
(20 -4.4249137e-26 -1.3243798e-06)
(20 -1.030562e-26 -1.8925029e-07)
(20 -1.0950092e-27 -5.4308003e-09)
(20 -2.0054227e-28 3.2166551e-09)
(20 -2.838385e-29 4.0685635e-10)
(20 1.0420362e-31 -2.2607194e-12)
(20 2.1325216e-31 -4.9643478e-12)
(20 -2.6892015e-32 -1.2500827e-13)
(20 -4.2583532e-33 -8.8201578e-13)
(20 4.3888349e-33 -8.5888883e-13)
(20 -1.0821817e-33 8.2929768e-16)
(20 -2.5082848e-33 -1.5117682e-12)
(20 -1.2531079e-33 4.0156718e-13)
(20 -6.3103734e-34 1.2833781e-12)
(20 -1.3229717e-33 -5.5800366e-14)
(20 1.9144855e-34 4.8148884e-13)
(20 0 -2.6388667e-13)
(20 8.0836883e-34 -2.9113572e-13)
(20 -1.3905396e-34 4.8948256e-13)
(20 -5.6762807e-34 3.055553e-13)
(20 -1.2645838e-34 9.7816704e-15)
(20 -3.375844e-33 -1.7608706e-13)
(20 -1.3896861e-33 3.3402265e-13)
(20 -4.9235944e-33 1.158475e-12)
(20 -2.1950406e-34 -6.7645613e-13)
(20 1.2857285e-34 -4.308491e-13)
(20 -4.9699803e-33 -7.1716843e-13)
(20 7.2343061e-33 -2.1663254e-12)
(20 -4.2875588e-33 7.4463588e-13)
(20 9.1161384e-34 6.7225291e-13)
(20 -1.8444065e-33 -3.2573261e-14)
(20 5.4866045e-33 9.4458367e-13)
(20 9.2491647e-34 6.762574e-13)
(20 9.6710569e-33 -4.954618e-13)
(20 1.7010646e-33 7.6587255e-13)
(20 1.1054316e-32 1.2982683e-12)
(20 -4.8168953e-33 -1.1508886e-12)
(20 -3.3212889e-33 -1.1956988e-12)
(20 -2.0674207e-34 4.4816269e-13)
(20 3.1697536e-33 -7.6611653e-14)
(20 -4.5549204e-34 3.1756397e-13)
(20 9.430206e-33 7.5330171e-13)
(20 -5.4072769e-33 -4.073991e-13)
(20 4.53857e-33 -1.3345387e-13)
(20 -5.751845e-33 -1.4215823e-13)
(20 -2.6689639e-33 -5.381017e-13)
(20 2.4599386e-33 -4.468231e-13)
(20 -8.4940508e-37 -4.0717621e-13)
(20 5.0401594e-34 2.644255e-13)
(20 4.0866723e-33 -2.3801141e-13)
(20 7.165865e-35 -1.0114842e-13)
(20 2.1762343e-33 -1.6360448e-13)
(20 -4.0250187e-33 -1.0482405e-13)
(20 -2.2334519e-34 1.9802977e-13)
(20 1.2635943e-33 1.8459024e-13)
(20 -6.7788755e-35 -9.8044489e-14)
(20 -4.0912795e-34 1.0540798e-13)
(20 -1.3883137e-33 6.8672568e-13)
(20 -2.3486029e-33 -1.3755716e-13)
(20 1.3130726e-33 7.3200283e-14)
(20 2.3493752e-33 4.5454031e-16)
(20 6.734504e-34 -5.9248231e-14)
(20 -3.1063017e-34 2.4853053e-13)
(20 -2.2744418e-34 -2.1219407e-13)
(20 0 -2.5175881e-14)
(20 2.8191088e-33 6.9514604e-14)
(20 0 -7.9629094e-14)
(17.730452 1.3513253e-20 -1.5325353)
(19.714624 2.5571585e-21 -2.9649695)
(19.762357 1.2319886e-20 -2.0976338)
(19.65572 -2.4056638e-20 -2.7478348)
(19.830555 -1.9298295e-20 -1.1457523)
(19.885715 1.8308042e-20 -0.78896241)
(19.966423 6.6074277e-22 -0.20927142)
(19.991027 -2.9068588e-21 -0.06059934)
(19.999467 -5.4483788e-25 -0.0031734915)
(20.000098 -7.2144506e-26 0.00037586795)
(20.000076 -4.3205401e-23 0.00045667746)
(20.00001 -4.0433631e-24 5.4559779e-05)
(20 8.7490182e-25 2.8080657e-06)
(20 -4.5038726e-26 -1.595615e-06)
(20 -1.1311586e-27 -2.4019223e-07)
(20 2.6970522e-27 -8.7129545e-09)
(20 -1.0047445e-29 3.8965278e-09)
(20 3.1499256e-29 5.2442231e-10)
(20 1.5728498e-30 2.4943655e-13)
(20 -2.5419357e-31 -6.4816101e-12)
(20 1.0407163e-31 2.310653e-13)
(20 4.2005072e-34 -4.1865934e-13)
(20 -3.5757302e-33 -4.7100446e-13)
(20 3.3076439e-33 8.5419653e-13)
(20 -2.586698e-33 6.9048656e-13)
(20 3.3155536e-34 -3.122531e-13)
(20 -2.1421438e-33 -5.8455789e-13)
(20 -5.9621652e-35 -1.6824577e-13)
(20 -1.5156877e-33 5.7090562e-13)
(20 3.0234978e-34 -7.3143763e-14)
(20 -4.6657432e-34 -2.5047156e-13)
(20 1.4834364e-34 1.7751548e-13)
(20 5.1383048e-34 6.5724678e-14)
(20 -2.2408638e-33 -4.950676e-13)
(20 -9.7011812e-35 1.0116406e-13)
(20 -8.8730678e-33 1.1739634e-12)
(20 -8.7673263e-34 2.7513775e-13)
(20 -5.4487551e-34 -5.7540879e-13)
(20 3.6908718e-33 -1.0579199e-12)
(20 2.9953258e-33 -1.2328987e-12)
(20 -1.295476e-33 -1.3898496e-14)
(20 3.2910769e-33 -1.5383121e-13)
(20 1.4159714e-34 -7.6449132e-13)
(20 7.4116066e-33 2.7022757e-13)
(20 5.7574721e-36 6.0674492e-13)
(20 1.9490365e-36 -6.2136599e-14)
(20 4.2355866e-33 -1.0893075e-12)
(20 2.5932659e-33 6.6161059e-13)
(20 4.7896063e-33 1.6684051e-12)
(20 0 4.7875257e-14)
(20 -3.3751397e-33 -8.2278083e-13)
(20 -2.4133008e-33 -2.6376977e-13)
(20 -4.5711446e-34 -1.0903872e-13)
(20 2.757383e-33 -3.8284271e-13)
(20 1.1062151e-33 9.153042e-13)
(20 1.1568791e-32 1.8658581e-12)
(20 -5.2044199e-34 9.1314989e-14)
(20 4.6055701e-33 -1.4460867e-12)
(20 -2.6166072e-34 -1.21276e-12)
(20 3.7180546e-34 -2.9398795e-13)
(20 1.6891418e-33 1.8249342e-13)
(20 2.7286499e-34 6.6946863e-13)
(20 -1.0358425e-33 -3.9492801e-14)
(20 -1.2213068e-33 -1.2308326e-12)
(20 -5.6407824e-33 4.5918391e-13)
(20 -6.7956444e-34 8.0123844e-13)
(20 -3.2864313e-33 -6.5110622e-13)
(20 1.5825488e-33 -3.1940751e-13)
(20 -1.2812628e-33 5.8177267e-15)
(20 4.7292249e-35 -2.9743529e-13)
(20 1.5123917e-33 2.1839313e-13)
(20 1.2693267e-33 6.6664735e-13)
(20 -4.0073389e-35 -1.113354e-13)
(20 1.6567244e-33 -3.8393777e-13)
(20 6.2119446e-34 6.4514503e-14)
(20 3.0738795e-34 5.0012655e-14)
(20 1.1200665e-33 8.9888983e-14)
(20 -2.4157583e-33 -1.947116e-13)
(20 -1.4077871e-33 1.9122804e-13)
(20 2.1118878e-34 5.859998e-16)
(17.285715 1.5761161e-20 -1.6320828)
(19.629086 2.7709164e-21 -3.3216985)
(19.691498 1.2137141e-21 -2.3848379)
(19.556942 -2.2733681e-21 -3.1438864)
(19.783362 1.8047124e-21 -1.3220275)
(19.851823 -1.9174817e-21 -0.9220842)
(19.955997 -7.2211538e-21 -0.24933579)
(19.987938 -5.7012034e-22 -0.073381447)
(19.999216 7.4160664e-23 -0.0042840786)
(20.000112 -1.4401558e-22 0.00037042333)
(20.000099 3.0955126e-24 0.00054251226)
(20.000013 -1.1688634e-23 6.8415991e-05)
(20 -1.0314538e-24 4.0362889e-06)
(20 4.5002964e-27 -1.8900259e-06)
(20 -2.9731516e-26 -2.9873477e-07)
(20 -1.4793946e-28 -1.2900516e-08)
(20 -1.3129344e-28 4.6350503e-09)
(20 -3.4022896e-29 6.6114045e-10)
(20 -1.9091647e-31 4.8061936e-12)
(20 -2.8262081e-31 -7.9918157e-12)
(20 2.6413677e-35 -5.2998601e-13)
(20 -3.0143518e-34 1.6214673e-13)
(20 -1.4804802e-34 4.9404229e-14)
(20 2.758195e-35 6.4230523e-13)
(20 -1.7012987e-33 1.3259694e-13)
(20 2.7551022e-35 -2.2756706e-13)
(20 -1.3592988e-34 5.0084587e-13)
(20 2.1882261e-33 -2.6652209e-13)
(20 3.3218651e-34 -3.9458221e-13)
(20 -1.6127079e-33 7.4273796e-13)
(20 -1.6811998e-33 7.3441853e-14)
(20 -1.9873152e-34 -8.3532645e-13)
(20 4.0395636e-34 2.9952409e-13)
(20 1.5716822e-34 4.4183611e-13)
(20 -2.5496095e-33 -7.2935493e-13)
(20 -1.5579743e-33 -3.5679832e-13)
(20 -1.0951555e-32 1.6336689e-12)
(20 -3.2781804e-34 -2.4363916e-13)
(20 -1.7410995e-32 -2.0849367e-12)
(20 1.1755425e-33 3.3384993e-13)
(20 -3.878312e-33 9.6382791e-13)
(20 1.5870912e-33 4.1295323e-13)
(20 -2.3325107e-35 -5.2036812e-13)
(20 0 -2.7575734e-13)
(20 -9.7992647e-34 -2.0281653e-13)
(20 8.6262758e-34 1.0994079e-13)