/*--------------------------------*- C++ -*----------------------------------*\
| =========                 |                                                 |
| \\      /  F ield         | OpenFOAM: The Open Source CFD Toolbox           |
|  \\    /   O peration     | Version:  2406                                  |
|   \\  /    A nd           | Website:  www.openfoam.com                      |
|    \\/     M anipulation  |                                                 |
\*---------------------------------------------------------------------------*/
FoamFile
{
    version     2.0;
    format      ascii;
    arch        "LSB;label=32;scalar=64";
    class       volScalarField;
    location    "0.00011";
    object      alphat;
}
// * * * * * * * * * * * * * * * * * * * * * * * * * * * * * * * * * * * * * //

dimensions      [1 -1 -1 0 0 0 0];

internalField   nonuniform List<scalar> 
16000
(
1.2000184e-05
2.5779473e-05
5.2368467e-05
0.00014118695
0.0001013847
0.00011090796
0.00014233058
0.00018221605
0.00020214611
0.00017493763
0.00017504125
0.00016872726
0.00018524628
0.00024577585
0.00039946205
0.0010062952
0.0011663071
0.0011663057
0.0011663066
0.0011663069
0.001166307
0.001166307
0.001166307
0.0011663071
0.0011663072
0.0011663074
0.0011663077
0.001166308
0.0011663083
0.0011663085
0.0011663087
0.0011663088
0.001166309
0.0011663091
0.0011663091
0.0011663092
0.0011663093
0.0011663093
0.0011663093
0.0011663093
0.0011663094
0.0011663094
0.0011663094
0.0011663094
0.0011663094
0.0011663094
0.0011663094
0.0011663094
0.0011663094
0.0011663094
0.0011663094
0.0011663094
0.0011663094
0.0011663094
0.0011663094
0.0011663094
0.0011663094
0.0011663094
0.0011663094
0.0011663094
0.0011663094
0.0011663094
0.0011663094
0.0011663094
0.0011663094
0.0011663094
0.0011663094
0.0011663094
0.0011663094
0.0011663094
0.0011663094
0.0011663094
0.0011663094
0.0011663094
0.0011663094
0.0011663094
0.0011663094
0.0011663094
0.0011663094
0.0011663095
1.1650016e-05
6.7401472e-05
8.0578093e-05
0.00019154172
0.00011588381
0.0001548817
0.00013893131
0.00018775742
0.00016672379
0.00014981263
0.00014921512
0.00014836695
0.00010127359
9.9449325e-05
0.00013348283
0.00028818265
0.0010758655
0.0011663069
0.0011663061
0.0011663066
0.0011663069
0.001166307
0.001166307
0.001166307
0.0011663072
0.0011663074
0.0011663076
0.0011663079
0.0011663082
0.0011663084
0.0011663086
0.0011663088
0.0011663089
0.001166309
0.0011663091
0.0011663092
0.0011663092
0.0011663093
0.0011663093
0.0011663093
0.0011663094
0.0011663094
0.0011663094
0.0011663094
0.0011663094
0.0011663094
0.0011663094
0.0011663094
0.0011663094
0.0011663094
0.0011663094
0.0011663094
0.0011663094
0.0011663094
0.0011663094
0.0011663094
0.0011663094
0.0011663094
0.0011663094
0.0011663094
0.0011663094
0.0011663094
0.0011663094
0.0011663094
0.0011663094
0.0011663094
0.0011663094
0.0011663094
0.0011663094
0.0011663094
0.0011663094
0.0011663094
0.0011663094
0.0011663094
0.0011663094
0.0011663094
0.0011663094
0.0011663094
0.0011663094
0.0011663095
1.1338984e-05
0.00025722837
0.00014695708
9.2350662e-05
9.4800727e-05
0.00020172701
0.00013228608
0.00015507171
0.00014986204
0.00014142556
0.00011544302
0.00013100684
6.8628055e-05
5.9111234e-05
7.3918178e-05
0.00014597428
0.00045391281
0.0011663102
0.0011663057
0.0011663062
0.0011663068
0.001166307
0.001166307
0.001166307
0.0011663071
0.0011663073
0.0011663076
0.0011663079
0.0011663081
0.0011663084
0.0011663086
0.0011663088
0.0011663089
0.001166309
0.0011663091
0.0011663092
0.0011663092
0.0011663093
0.0011663093
0.0011663093
0.0011663094
0.0011663094
0.0011663094
0.0011663094
0.0011663094
0.0011663094
0.0011663094
0.0011663094
0.0011663094
0.0011663094
0.0011663094
0.0011663094
0.0011663094
0.0011663094
0.0011663094
0.0011663094
0.0011663094
0.0011663094
0.0011663094
0.0011663094
0.0011663094
0.0011663094
0.0011663094
0.0011663094
0.0011663094
0.0011663094
0.0011663094
0.0011663094
0.0011663094
0.0011663094
0.0011663094
0.0011663094
0.0011663094
0.0011663094
0.0011663094
0.0011663094
0.0011663094
0.0011663094
0.0011663094
0.0011663095
7.7921712e-06
5.4968634e-05
6.5653339e-05
5.5768424e-05
6.5610946e-05
0.00021628807
0.00011902035
0.00011259377
0.0001349507
0.00013592881
8.5095628e-05
0.0001216689
5.4133794e-05
4.1309495e-05
4.847597e-05
8.9782647e-05
0.00024739994
0.0011663161
0.0011663053
0.0011663058
0.0011663067
0.0011663069
0.001166307
0.001166307
0.0011663071
0.0011663073
0.0011663075
0.0011663078
0.0011663081
0.0011663083
0.0011663086
0.0011663087
0.0011663089
0.001166309
0.0011663091
0.0011663092
0.0011663092
0.0011663093
0.0011663093
0.0011663093
0.0011663093
0.0011663094
0.0011663094
0.0011663094
0.0011663094
0.0011663094
0.0011663094
0.0011663094
0.0011663094
0.0011663094
0.0011663094
0.0011663094
0.0011663094
0.0011663094
0.0011663094
0.0011663094
0.0011663094
0.0011663094
0.0011663094
0.0011663094
0.0011663094
0.0011663094
0.0011663094
0.0011663094
0.0011663094
0.0011663094
0.0011663094
0.0011663094
0.0011663094
0.0011663094
0.0011663094
0.0011663094
0.0011663094
0.0011663094
0.0011663094
0.0011663094
0.0011663094
0.0011663094
0.0011663094
0.0011663095
6.6666206e-06
2.471638e-05
3.7376079e-05
4.0376518e-05
4.8991673e-05
0.00021182879
9.0496785e-05
8.0829327e-05
0.00011995231
0.00013085102
6.3069951e-05
0.0001146128
4.6475781e-05
3.1608987e-05
3.4984479e-05
6.1260788e-05
0.00015250142
0.00071909608
0.0011663051
0.0011663052
0.0011663065
0.0011663069
0.001166307
0.001166307
0.0011663071
0.0011663072
0.0011663075
0.0011663078
0.001166308
0.0011663083
0.0011663085
0.0011663087
0.0011663089
0.001166309
0.0011663091
0.0011663091
0.0011663092
0.0011663093
0.0011663093
0.0011663093
0.0011663093
0.0011663094
0.0011663094
0.0011663094
0.0011663094
0.0011663094
0.0011663094
0.0011663094
0.0011663094
0.0011663094
0.0011663094
0.0011663094
0.0011663094
0.0011663094
0.0011663094
0.0011663094
0.0011663094
0.0011663094
0.0011663094
0.0011663094
0.0011663094
0.0011663094
0.0011663094
0.0011663094
0.0011663094
0.0011663094
0.0011663094
0.0011663094
0.0011663094
0.0011663094
0.0011663094
0.0011663094
0.0011663094
0.0011663094
0.0011663094
0.0011663094
0.0011663094
0.0011663094
0.0011663094
0.0011663096
7.2053427e-06
1.4152539e-05
2.1402111e-05
3.2563629e-05
3.8424193e-05
0.00019062718
5.2412625e-05
5.7142554e-05
9.7834019e-05
0.00012368054
4.9217561e-05
0.00010612548
4.2058407e-05
2.5628542e-05
2.6801032e-05
4.4601279e-05
0.0001014397
0.00044616102
0.0011663053
0.0011663046
0.0011663063
0.0011663069
0.001166307
0.001166307
0.0011663071
0.0011663072
0.0011663074
0.0011663077
0.001166308
0.0011663083
0.0011663085
0.0011663087
0.0011663088
0.001166309
0.0011663091
0.0011663091
0.0011663092
0.0011663092
0.0011663093
0.0011663093
0.0011663093
0.0011663094
0.0011663094
0.0011663094
0.0011663094
0.0011663094
0.0011663094
0.0011663094
0.0011663094
0.0011663094
0.0011663094
0.0011663094
0.0011663094
0.0011663094
0.0011663094
0.0011663094
0.0011663094
0.0011663094
0.0011663094
0.0011663094
0.0011663094
0.0011663094
0.0011663094
0.0011663094
0.0011663094
0.0011663094
0.0011663094
0.0011663094
0.0011663094
0.0011663094
0.0011663094
0.0011663094
0.0011663094
0.0011663094
0.0011663094
0.0011663094
0.0011663094
0.0011663094
0.0011663094
0.0011663096
9.0020926e-06
9.2842124e-06
1.3530031e-05
2.5699783e-05
3.1019579e-05
0.00012138869
3.3124139e-05
4.2508093e-05
7.9464864e-05
0.00011764694
4.0017765e-05
9.3338466e-05
3.9267623e-05
2.163243e-05
2.1410257e-05
3.3982745e-05
7.2324346e-05
0.00029487356
0.0011663063
0.0011663039
0.0011663059
0.0011663068
0.001166307
0.001166307
0.001166307
0.0011663072
0.0011663074
0.0011663076
0.0011663079
0.0011663082
0.0011663084
0.0011663086
0.0011663088
0.0011663089
0.001166309
0.0011663091
0.0011663092
0.0011663092
0.0011663093
0.0011663093
0.0011663093
0.0011663094
0.0011663094
0.0011663094
0.0011663094
0.0011663094
0.0011663094
0.0011663094
0.0011663094
0.0011663094
0.0011663094
0.0011663094
0.0011663094
0.0011663094
0.0011663094
0.0011663094
0.0011663094
0.0011663094
0.0011663094
0.0011663094
0.0011663094
0.0011663094
0.0011663094
0.0011663094
0.0011663094
0.0011663094
0.0011663094
0.0011663094
0.0011663094
0.0011663094
0.0011663094
0.0011663094
0.0011663094
0.0011663094
0.0011663094
0.0011663094
0.0011663094
0.0011663094
0.0011663094
0.0011663096
9.0704255e-06
6.4222641e-06
9.0859697e-06
2.2340558e-05
2.6222367e-05
6.7879071e-05
2.3420033e-05
3.1699257e-05
7.0346511e-05
0.00011502429
3.3621875e-05
8.1276035e-05
3.6781184e-05
1.8837599e-05
1.7645582e-05
2.6789266e-05
5.4739502e-05
0.0002046792
0.0011663084
0.0011663031
0.0011663055
0.0011663068
0.001166307
0.001166307
0.001166307
0.0011663071
0.0011663073
0.0011663076
0.0011663079
0.0011663082
0.0011663084
0.0011663086
0.0011663088
0.0011663089
0.001166309
0.0011663091
0.0011663092
0.0011663092
0.0011663093
0.0011663093
0.0011663093
0.0011663094
0.0011663094
0.0011663094
0.0011663094
0.0011663094
0.0011663094
0.0011663094
0.0011663094
0.0011663094
0.0011663094
0.0011663094
0.0011663094
0.0011663094
0.0011663094
0.0011663094
0.0011663094
0.0011663094
0.0011663094
0.0011663094
0.0011663094
0.0011663094
0.0011663094
0.0011663094
0.0011663094
0.0011663094
0.0011663094
0.0011663094
0.0011663094
0.0011663094
0.0011663094
0.0011663094
0.0011663094
0.0011663094
0.0011663094
0.0011663094
0.0011663094
0.0011663094
0.0011663094
0.0011663097
6.6040223e-06
4.806068e-06
7.0012814e-06
2.6132572e-05
2.3105464e-05
4.3105421e-05
1.762275e-05
2.5819873e-05
6.545232e-05
0.00011222357
3.0047326e-05
6.6498502e-05
3.5712997e-05
1.6593298e-05
1.4877035e-05
2.1657897e-05
4.266848e-05
0.00014771189
0.001166312
0.0011663022
0.001166305
0.0011663067
0.001166307
0.001166307
0.001166307
0.0011663071
0.0011663073
0.0011663076
0.0011663078
0.0011663081
0.0011663084
0.0011663086
0.0011663088
0.0011663089
0.001166309
0.0011663091
0.0011663092
0.0011663092
0.0011663093
0.0011663093
0.0011663093
0.0011663094
0.0011663094
0.0011663094
0.0011663094
0.0011663094
0.0011663094
0.0011663094
0.0011663094
0.0011663094
0.0011663094
0.0011663094
0.0011663094
0.0011663094
0.0011663094
0.0011663094
0.0011663094
0.0011663094
0.0011663094
0.0011663094
0.0011663094
0.0011663094
0.0011663094
0.0011663094
0.0011663094
0.0011663094
0.0011663094
0.0011663094
0.0011663094
0.0011663094
0.0011663094
0.0011663094
0.0011663094
0.0011663094
0.0011663094
0.0011663094
0.0011663094
0.0011663094
0.0011663094
0.0011663097
4.434754e-06
3.4873184e-06
4.5976715e-06
3.2643333e-05
2.1118989e-05
3.7777811e-05
1.445272e-05
2.1917446e-05
6.2897427e-05
7.4034865e-05
2.7050733e-05
5.0921732e-05
3.5240979e-05
1.4732101e-05
1.2774497e-05
1.7866014e-05
3.4043121e-05
0.00010999213
0.00081397991
0.0011663013
0.0011663045
0.0011663065
0.001166307
0.001166307
0.001166307
0.0011663071
0.0011663073
0.0011663075
0.0011663078
0.0011663081
0.0011663083
0.0011663086
0.0011663087
0.0011663089
0.001166309
0.0011663091
0.0011663092
0.0011663092
0.0011663093
0.0011663093
0.0011663093
0.0011663094
0.0011663094
0.0011663094
0.0011663094
0.0011663094
0.0011663094
0.0011663094
0.0011663094
0.0011663094
0.0011663094
0.0011663094
0.0011663094
0.0011663094
0.0011663094
0.0011663094
0.0011663094
0.0011663094
0.0011663094
0.0011663094
0.0011663094
0.0011663094
0.0011663094
0.0011663094
0.0011663094
0.0011663094
0.0011663094
0.0011663094
0.0011663094
0.0011663094
0.0011663094
0.0011663094
0.0011663094
0.0011663094
0.0011663094
0.0011663094
0.0011663094
0.0011663094
0.0011663094
0.0011663098
2.930421e-06
2.6230271e-06
3.3626723e-06
5.0387979e-05
1.9177972e-05
3.2895723e-05
1.2646305e-05
1.7643648e-05
5.9978731e-05
4.7516743e-05
2.4722298e-05
3.8794885e-05
3.5632809e-05
1.3182959e-05
1.1110356e-05
1.4976858e-05
2.7673888e-05
8.3993176e-05
0.00057592238
0.0011663004
0.0011663038
0.0011663064
0.001166307
0.001166307
0.001166307
0.0011663071
0.0011663073
0.0011663075
0.0011663078
0.0011663081
0.0011663083
0.0011663085
0.0011663087
0.0011663089
0.001166309
0.0011663091
0.0011663092
0.0011663092
0.0011663093
0.0011663093
0.0011663093
0.0011663093
0.0011663094
0.0011663094
0.0011663094
0.0011663094
0.0011663094
0.0011663094
0.0011663094
0.0011663094
0.0011663094
0.0011663094
0.0011663094
0.0011663094
0.0011663094
0.0011663094
0.0011663094
0.0011663094
0.0011663094
0.0011663094
0.0011663094
0.0011663094
0.0011663094
0.0011663094
0.0011663094
0.0011663094
0.0011663094
0.0011663094
0.0011663094
0.0011663094
0.0011663094
0.0011663094
0.0011663094
0.0011663094
0.0011663094
0.0011663094
0.0011663094
0.0011663094
0.0011663094
0.0011663098
2.1720357e-06
2.0988115e-06
2.4924658e-06
3.0276296e-05
1.6135466e-05
6.7913627e-05
1.0496995e-05
1.6528082e-05
5.0013939e-05
3.1567583e-05
2.3060013e-05
3.0266891e-05
3.7163569e-05
1.1901043e-05
9.7469695e-06
1.2713771e-05
2.2833617e-05
6.5463936e-05
0.00042055665
0.0011662996
0.0011663031
0.0011663062
0.0011663069
0.001166307
0.001166307
0.0011663071
0.0011663072
0.0011663075
0.0011663077
0.001166308
0.0011663083
0.0011663085
0.0011663087
0.0011663089
0.001166309
0.0011663091
0.0011663091
0.0011663092
0.0011663093
0.0011663093
0.0011663093
0.0011663093
0.0011663094
0.0011663094
0.0011663094
0.0011663094
0.0011663094
0.0011663094
0.0011663094
0.0011663094
0.0011663094
0.0011663094
0.0011663094
0.0011663094
0.0011663094
0.0011663094
0.0011663094
0.0011663094
0.0011663094
0.0011663094
0.0011663094
0.0011663094
0.0011663094
0.0011663094
0.0011663094
0.0011663094
0.0011663094
0.0011663094
0.0011663094
0.0011663094
0.0011663094
0.0011663094
0.0011663094
0.0011663094
0.0011663094
0.0011663094
0.0011663094
0.0011663094
0.0011663094
0.0011663099
1.7209617e-06
1.6607336e-06
1.8746706e-06
2.1046409e-05
1.3403251e-05
5.62708e-05
8.7886627e-06
1.6022496e-05
3.8830966e-05
2.2320891e-05
2.176297e-05
2.4636776e-05
3.9162909e-05
1.086373e-05
8.6164762e-06
1.0904484e-05
1.9066601e-05
5.1879907e-05
0.00031492514
0.0011662989
0.0011663023
0.0011663059
0.0011663069
0.001166307
0.001166307
0.0011663071
0.0011663072
0.0011663074
0.0011663077
0.001166308
0.0011663083
0.0011663085
0.0011663087
0.0011663088
0.001166309
0.0011663091
0.0011663091
0.0011663092
0.0011663093
0.0011663093
0.0011663093
0.0011663093
0.0011663094
0.0011663094
0.0011663094
0.0011663094
0.0011663094
0.0011663094
0.0011663094
0.0011663094
0.0011663094
0.0011663094
0.0011663094
0.0011663094
0.0011663094
0.0011663094
0.0011663094
0.0011663094
0.0011663094
0.0011663094
0.0011663094
0.0011663094
0.0011663094
0.0011663094
0.0011663094
0.0011663094
0.0011663094
0.0011663094
0.0011663094
0.0011663094
0.0011663094
0.0011663094
0.0011663094
0.0011663094
0.0011663094
0.0011663094
0.0011663094
0.0011663094
0.0011663094
0.0011663099
1.29663e-06
1.2840045e-06
1.4312845e-06
1.4388807e-05
1.0678337e-05
3.6055081e-05
7.4290438e-06
1.4935417e-05
2.9462872e-05
1.6562457e-05
2.0892265e-05
2.0832806e-05
4.0159316e-05
1.002176e-05
7.6681204e-06
9.4310284e-06
1.6077765e-05
4.1714339e-05
0.0002406535
0.0011662983
0.0011663014
0.0011663056
0.0011663069
0.001166307
0.001166307
0.0011663071
0.0011663072
0.0011663074
0.0011663077
0.001166308
0.0011663083
0.0011663085
0.0011663087
0.0011663088
0.001166309
0.0011663091
0.0011663091
0.0011663092
0.0011663092
0.0011663093
0.0011663093
0.0011663093
0.0011663094
0.0011663094
0.0011663094
0.0011663094
0.0011663094
0.0011663094
0.0011663094
0.0011663094
0.0011663094
0.0011663094
0.0011663094
0.0011663094
0.0011663094
0.0011663094
0.0011663094
0.0011663094
0.0011663094
0.0011663094
0.0011663094
0.0011663094
0.0011663094
0.0011663094
0.0011663094
0.0011663094
0.0011663094
0.0011663094
0.0011663094
0.0011663094
0.0011663094
0.0011663094
0.0011663094
0.0011663094
0.0011663094
0.0011663094
0.0011663094
0.0011663094
0.0011663094
0.00116631
9.5051817e-07
9.8062004e-07
1.0909727e-06
9.6896598e-06
8.1095799e-06
2.2793707e-05
6.3029206e-06
1.3758822e-05
2.2333659e-05
1.2680952e-05
2.0297091e-05
1.8146137e-05
3.8005901e-05
9.3050392e-06
6.8680036e-06
8.2141841e-06
1.3670424e-05
3.4174332e-05
0.00018705068
0.001166298
0.0011663004
0.0011663053
0.0011663069
0.001166307
0.001166307
0.0011663071
0.0011663072
0.0011663074
0.0011663077
0.001166308
0.0011663082
0.0011663085
0.0011663087
0.0011663088
0.0011663089
0.0011663091
0.0011663091
0.0011663092
0.0011663092
0.0011663093
0.0011663093
0.0011663093
0.0011663094
0.0011663094
0.0011663094
0.0011663094
0.0011663094
0.0011663094
0.0011663094
0.0011663094
0.0011663094
0.0011663094
0.0011663094
0.0011663094
0.0011663094
0.0011663094
0.0011663094
0.0011663094
0.0011663094
0.0011663094
0.0011663094
0.0011663094
0.0011663094
0.0011663094
0.0011663094
0.0011663094
0.0011663094
0.0011663094
0.0011663094
0.0011663094
0.0011663094
0.0011663094
0.0011663094
0.0011663094
0.0011663094
0.0011663094
0.0011663094
0.0011663094
0.0011663094
0.00116631
7.1894889e-07
7.4612363e-07
8.2467118e-07
7.4489258e-06
6.0212157e-06
1.6547319e-05
5.3426354e-06
1.2793582e-05
1.7105999e-05
9.9275738e-06
1.9731882e-05
1.6184165e-05
3.2834909e-05
8.6490176e-06
6.1775726e-06
7.1934881e-06
1.1706382e-05
2.8579394e-05
0.00014764601
0.001166298
0.0011662994
0.0011663049
0.0011663068
0.001166307
0.001166307
0.0011663071
0.0011663072
0.0011663074
0.0011663077
0.0011663079
0.0011663082
0.0011663085
0.0011663087
0.0011663088
0.0011663089
0.0011663091
0.0011663091
0.0011663092
0.0011663092
0.0011663093
0.0011663093
0.0011663093
0.0011663094
0.0011663094
0.0011663094
0.0011663094
0.0011663094
0.0011663094
0.0011663094
0.0011663094
0.0011663094
0.0011663094
0.0011663094
0.0011663094
0.0011663094
0.0011663094
0.0011663094
0.0011663094
0.0011663094
0.0011663094
0.0011663094
0.0011663094
0.0011663094
0.0011663094
0.0011663094
0.0011663094
0.0011663094
0.0011663094
0.0011663094
0.0011663094
0.0011663094
0.0011663094
0.0011663094
0.0011663094
0.0011663094
0.0011663094
0.0011663094
0.0011663094
0.0011663094
0.0011663101
5.4596043e-07
5.4929297e-07
6.1938362e-07
5.3825518e-06
4.4003935e-06
1.1452378e-05
4.5486353e-06
1.084561e-05
1.3600237e-05
7.9348229e-06
1.9053014e-05
1.4584918e-05
2.6955296e-05
8.0106748e-06
5.5615552e-06
6.3203558e-06
1.0083964e-05
2.4098772e-05
0.00011837486
0.0011662984
0.0011662982
0.0011663044
0.0011663068
0.001166307
0.001166307
0.001166307
0.0011663072
0.0011663074
0.0011663077
0.0011663079
0.0011663082
0.0011663085
0.0011663087
0.0011663088
0.0011663089
0.001166309
0.0011663091
0.0011663092
0.0011663092
0.0011663093
0.0011663093
0.0011663093
0.0011663094
0.0011663094
0.0011663094
0.0011663094
0.0011663094
0.0011663094
0.0011663094
0.0011663094
0.0011663094
0.0011663094
0.0011663094
0.0011663094
0.0011663094
0.0011663094
0.0011663094
0.0011663094
0.0011663094
0.0011663094
0.0011663094
0.0011663094
0.0011663094
0.0011663094
0.0011663094
0.0011663094
0.0011663094
0.0011663094
0.0011663094
0.0011663094
0.0011663094
0.0011663094
0.0011663094
0.0011663094
0.0011663094
0.0011663094
0.0011663094
0.0011663094
0.0011663094
0.0011663101
4.149683e-07
4.1214809e-07
4.53992e-07
5.837783e-06
3.2181947e-06
9.6048732e-06
3.8876646e-06
1.0013055e-05
1.101383e-05
6.5266035e-06
1.812029e-05
1.3146862e-05
2.1906607e-05
7.409889e-06
5.0075371e-06
5.5680393e-06
8.7367077e-06
2.050051e-05
9.6591182e-05
0.0010152787
0.0011662969
0.0011663039
0.0011663067
0.001166307
0.001166307
0.001166307
0.0011663072
0.0011663074
0.0011663077
0.0011663079
0.0011663082
0.0011663084
0.0011663086
0.0011663088
0.0011663089
0.001166309
0.0011663091
0.0011663092
0.0011663092
0.0011663093
0.0011663093
0.0011663093
0.0011663094
0.0011663094
0.0011663094
0.0011663094
0.0011663094
0.0011663094
0.0011663094
0.0011663094
0.0011663094
0.0011663094
0.0011663094
0.0011663094
0.0011663094
0.0011663094
0.0011663094
0.0011663094
0.0011663094
0.0011663094
0.0011663094
0.0011663094
0.0011663094
0.0011663094
0.0011663094
0.0011663094
0.0011663094
0.0011663094
0.0011663094
0.0011663094
0.0011663094
0.0011663094
0.0011663094
0.0011663094
0.0011663094
0.0011663094
0.0011663094
0.0011663094
0.0011663094
0.0011663102
2.5282471e-07
3.176322e-07
3.2338079e-07
3.5380582e-06
2.2769922e-06
7.150352e-06
3.3736922e-06
8.2299965e-06
9.35465e-06
5.9572123e-06
1.7098011e-05
1.1887971e-05
1.8082641e-05
6.8914337e-06
4.5306131e-06
4.9372746e-06
7.6398544e-06
1.7656122e-05
8.0554417e-05
0.00080633472
0.0011662955
0.0011663033
0.0011663066
0.001166307
0.001166307
0.001166307
0.0011663072
0.0011663074
0.0011663076
0.0011663079
0.0011663082
0.0011663084
0.0011663086
0.0011663088
0.0011663089
0.001166309
0.0011663091
0.0011663092
0.0011663092
0.0011663093
0.0011663093
0.0011663093
0.0011663094
0.0011663094
0.0011663094
0.0011663094
0.0011663094
0.0011663094
0.0011663094
0.0011663094
0.0011663094
0.0011663094
0.0011663094
0.0011663094
0.0011663094
0.0011663094
0.0011663094
0.0011663094
0.0011663094
0.0011663094
0.0011663094
0.0011663094
0.0011663094
0.0011663094
0.0011663094
0.0011663094
0.0011663094
0.0011663094
0.0011663094
0.0011663094
0.0011663094
0.0011663094
0.0011663094
0.0011663094
0.0011663094
0.0011663094
0.0011663094
0.0011663094
0.0011663094
0.0011663103
1.539118e-07
2.304337e-07
2.1063941e-07
2.6998027e-06
1.5663751e-06
3.2691478e-06
2.8968299e-06
9.293914e-06
7.799424e-06
5.7539182e-06
1.49738e-05
1.0883817e-05
1.5775391e-05
6.7950753e-06
4.1482911e-06
4.4384525e-06
6.7925791e-06
1.5514119e-05
6.9219509e-05
0.0006721976
0.0011662942
0.0011663028
0.0011663066
0.001166307
0.001166307
0.0011663071
0.0011663072
0.0011663074
0.0011663076
0.0011663079
0.0011663082
0.0011663085
0.0011663087
0.0011663088
0.0011663089
0.0011663091
0.0011663091
0.0011663092
0.0011663092
0.0011663093
0.0011663093
0.0011663093
0.0011663094
0.0011663094
0.0011663094
0.0011663094
0.0011663094
0.0011663094
0.0011663094
0.0011663094
0.0011663094
0.0011663094
0.0011663094
0.0011663094
0.0011663094
0.0011663094
0.0011663094
0.0011663094
0.0011663094
0.0011663094
0.0011663094
0.0011663094
0.0011663094
0.0011663094
0.0011663094
0.0011663094
0.0011663094
0.0011663094
0.0011663094
0.0011663094
0.0011663094
0.0011663094
0.0011663094
0.0011663094
0.0011663094
0.0011663094
0.0011663094
0.0011663094
0.0011663094
0.0011663104
1.1056431e-07
1.5930118e-07
1.3256583e-07
3.1988623e-06
1.1807565e-06
2.8737292e-06
2.3185227e-06
1.4834164e-05
6.259922e-06
6.0172505e-06
1.2587306e-05
1.0695372e-05
1.5240898e-05
5.9866462e-06
3.858344e-06
4.0712941e-06
6.1864992e-06
1.4047732e-05
6.205291e-05
0.00059532893
0.0011662929
0.0011663024
0.0011663065
0.001166307
0.001166307
0.001166307
0.0011663072
0.0011663074
0.0011663077
0.0011663079
0.0011663082
0.0011663085
0.0011663087
0.0011663088
0.001166309
0.0011663091
0.0011663091
0.0011663092
0.0011663092
0.0011663093
0.0011663093
0.0011663093
0.0011663094
0.0011663094
0.0011663094
0.0011663094
0.0011663094
0.0011663094
0.0011663094
0.0011663094
0.0011663094
0.0011663094
0.0011663094
0.0011663094
0.0011663094
0.0011663094
0.0011663094
0.0011663094
0.0011663094
0.0011663094
0.0011663094
0.0011663094
0.0011663094
0.0011663094
0.0011663094
0.0011663094
0.0011663094
0.0011663094
0.0011663094
0.0011663094
0.0011663094
0.0011663094
0.0011663094
0.0011663094
0.0011663094
0.0011663094
0.0011663094
0.0011663094
0.0011663094
0.0011663105
9.502668e-08
1.2710942e-07
8.9226024e-08
1.8024021e-06
9.577762e-07
2.5345328e-06
1.8781724e-06
9.5274616e-06
5.3968426e-06
7.5564658e-06
1.0463736e-05
1.0919269e-05
1.6305142e-05
5.5479173e-06
3.6448606e-06
3.8149548e-06
5.8024854e-06
1.3213229e-05
5.8848459e-05
0.00057208236
0.001166292
0.0011663022
0.0011663065
0.001166307
0.001166307
0.0011663071
0.0011663072
0.0011663074
0.0011663077
0.001166308
0.0011663082
0.0011663085
0.0011663087
0.0011663088
0.001166309
0.0011663091
0.0011663091
0.0011663092
0.0011663093
0.0011663093
0.0011663093
0.0011663093
0.0011663094
0.0011663094
0.0011663094
0.0011663094
0.0011663094
0.0011663094
0.0011663094
0.0011663094
0.0011663094
0.0011663094
0.0011663094
0.0011663094
0.0011663094
0.0011663094
0.0011663094
0.0011663094
0.0011663094
0.0011663094
0.0011663094
0.0011663094
0.0011663094
0.0011663094
0.0011663094
0.0011663094
0.0011663094
0.0011663094
0.0011663094
0.0011663094
0.0011663094
0.0011663094
0.0011663094
0.0011663094
0.0011663094
0.0011663094
0.0011663094
0.0011663094
0.0011663094
0.0011663105
1.4718267e-07
1.0432841e-07
1.4795182e-07
2.445785e-06
8.1359971e-07
2.8862139e-06
1.7982673e-06
3.9843156e-06
6.7356857e-06
6.7825889e-06
1.0381055e-05
1.2058704e-05
1.6584996e-05
5.2220495e-06
3.4556697e-06
3.6493914e-06
5.6231298e-06
1.2997424e-05
5.9786285e-05
0.00060931392
0.0011662916
0.0011663022
0.0011663065
0.001166307
0.001166307
0.0011663071
0.0011663072
0.0011663074
0.0011663077
0.001166308
0.0011663083
0.0011663085
0.0011663087
0.0011663089
0.001166309
0.0011663091
0.0011663092
0.0011663092
0.0011663093
0.0011663093
0.0011663093
0.0011663093
0.0011663094
0.0011663094
0.0011663094
0.0011663094
0.0011663094
0.0011663094
0.0011663094
0.0011663094
0.0011663094
0.0011663094
0.0011663094
0.0011663094
0.0011663094
0.0011663094
0.0011663094
0.0011663094
0.0011663094
0.0011663094
0.0011663094
0.0011663094
0.0011663094
0.0011663094
0.0011663094
0.0011663094
0.0011663094
0.0011663094
0.0011663094
0.0011663094
0.0011663094
0.0011663094
0.0011663094
0.0011663094
0.0011663094
0.0011663094
0.0011663094
0.0011663094
0.0011663094
0.0011663106
2.1304636e-07
8.3869759e-08
4.8430319e-07
3.7818576e-06
7.7834274e-07
2.6129388e-06
2.1305175e-06
2.5105886e-06
6.2447783e-06
3.9103053e-06
9.1961208e-06
1.2789985e-05
1.4779224e-05
4.942271e-06
3.2805509e-06
3.5675126e-06
5.6441474e-06
1.3418434e-05
6.5523169e-05
0.00073224648
0.0011662918
0.0011663026
0.0011663066
0.001166307
0.001166307
0.0011663071
0.0011663072
0.0011663075
0.0011663077
0.001166308
0.0011663083
0.0011663085
0.0011663087
0.0011663089
0.001166309
0.0011663091
0.0011663092
0.0011663092
0.0011663093
0.0011663093
0.0011663093
0.0011663093
0.0011663094
0.0011663094
0.0011663094
0.0011663094
0.0011663094
0.0011663094
0.0011663094
0.0011663094
0.0011663094
0.0011663094
0.0011663094
0.0011663094
0.0011663094
0.0011663094
0.0011663094
0.0011663094
0.0011663094
0.0011663094
0.0011663094
0.0011663094
0.0011663094
0.0011663094
0.0011663094
0.0011663094
0.0011663094
0.0011663094
0.0011663094
0.0011663094
0.0011663094
0.0011663094
0.0011663094
0.0011663094
0.0011663094
0.0011663094
0.0011663094
0.0011663094
0.0011663094
0.0011663107
3.3466024e-07
6.349579e-08
5.4294376e-07
7.4589114e-07
8.1758233e-07
1.7432016e-06
2.0100554e-06
1.8984049e-06
3.5259518e-06
2.9197197e-06
7.0364231e-06
1.1932834e-05
1.3334324e-05
4.570258e-06
3.1548891e-06
3.5709568e-06
5.8613922e-06
1.4497818e-05
7.7329569e-05
0.001009243
0.0011662927
0.0011663032
0.0011663067
0.001166307
0.001166307
0.0011663071
0.0011663073
0.0011663075
0.0011663078
0.0011663081
0.0011663083
0.0011663086
0.0011663087
0.0011663089
0.001166309
0.0011663091
0.0011663092
0.0011663092
0.0011663093
0.0011663093
0.0011663093
0.0011663093
0.0011663094
0.0011663094
0.0011663094
0.0011663094
0.0011663094
0.0011663094
0.0011663094
0.0011663094
0.0011663094
0.0011663094
0.0011663094
0.0011663094
0.0011663094
0.0011663094
0.0011663094
0.0011663094
0.0011663094
0.0011663094
0.0011663094
0.0011663094
0.0011663094
0.0011663094
0.0011663094
0.0011663094
0.0011663094
0.0011663094
0.0011663094
0.0011663094
0.0011663094
0.0011663094
0.0011663094
0.0011663094
0.0011663094
0.0011663094
0.0011663094
0.0011663094
0.0011663094
0.0011663108
1.6348273e-07
4.3504287e-08
1.2287176e-07
1.9796153e-06
8.0426159e-07
1.6546998e-06
1.5591692e-06
2.6755857e-06
2.7523932e-06
2.8434812e-06
6.2463287e-06
1.0870103e-05
1.2706841e-05
4.2449754e-06
3.0733698e-06
3.6518368e-06
6.2562154e-06
1.6454017e-05
9.6786913e-05
0.0011662865
0.001166294
0.0011663039
0.0011663068
0.001166307
0.001166307
0.0011663071
0.0011663073
0.0011663075
0.0011663078
0.0011663081
0.0011663083
0.0011663086
0.0011663087
0.0011663089
0.001166309
0.0011663091
0.0011663092
0.0011663092
0.0011663093
0.0011663093
0.0011663093
0.0011663094
0.0011663094
0.0011663094
0.0011663094
0.0011663094
0.0011663094
0.0011663094
0.0011663094
0.0011663094
0.0011663094
0.0011663094
0.0011663094
0.0011663094
0.0011663094
0.0011663094
0.0011663094
0.0011663094
0.0011663094
0.0011663094
0.0011663094
0.0011663094
0.0011663094
0.0011663094
0.0011663094
0.0011663094
0.0011663094
0.0011663094
0.0011663094
0.0011663094
0.0011663094
0.0011663094
0.0011663094
0.0011663094
0.0011663094
0.0011663094
0.0011663094
0.0011663094
0.0011663094
0.0011663109
1.1220675e-07
7.0689805e-08
2.0276705e-07
8.331016e-06
4.2387959e-07
7.9533226e-06
1.3288793e-06
5.3592742e-06
3.1453945e-06
3.4108402e-06
5.8002747e-06
1.0113612e-05
1.2136863e-05
3.9033045e-06
3.0257419e-06
3.7792009e-06
6.7537991e-06
1.9256238e-05
0.00012313733
0.0011662855
0.0011662954
0.0011663045
0.0011663069
0.001166307
0.001166307
0.0011663071
0.0011663073
0.0011663075
0.0011663078
0.0011663081
0.0011663084
0.0011663086
0.0011663088
0.0011663089
0.001166309
0.0011663091
0.0011663092
0.0011663092
0.0011663093
0.0011663093
0.0011663093
0.0011663093
0.0011663094
0.0011663094
0.0011663094
0.0011663094
0.0011663094
0.0011663094
0.0011663094
0.0011663094
0.0011663094
0.0011663094
0.0011663094
0.0011663094
0.0011663094
0.0011663094
0.0011663094
0.0011663094
0.0011663094
0.0011663094
0.0011663094
0.0011663094
0.0011663094
0.0011663094
0.0011663094
0.0011663094
0.0011663094
0.0011663094
0.0011663094
0.0011663094
0.0011663094
0.0011663094
0.0011663094
0.0011663094
0.0011663094
0.0011663094
0.0011663094
0.0011663094
0.0011663094
0.0011663109
7.8384998e-08
1.9330299e-07
4.7556075e-07
5.2320894e-07
3.516703e-07
3.9707048e-06
1.1959295e-06
2.9235091e-06
3.9171021e-06
4.6526439e-06
6.9924683e-06
9.512147e-06
1.1220093e-05
3.7402225e-06
2.9902321e-06
3.9001524e-06
7.1697678e-06
2.1654414e-05
0.00014740757
0.0011662855
0.0011662965
0.0011663049
0.0011663069
0.001166307
0.001166307
0.0011663071
0.0011663073
0.0011663076
0.0011663078
0.0011663081
0.0011663084
0.0011663086
0.0011663087
0.0011663089
0.001166309
0.0011663091
0.0011663092
0.0011663092
0.0011663093
0.0011663093
0.0011663093
0.0011663093
0.0011663094
0.0011663094
0.0011663094
0.0011663094
0.0011663094
0.0011663094
0.0011663094
0.0011663094