/*--------------------------------*- C++ -*----------------------------------*\
| =========                 |                                                 |
| \\      /  F ield         | OpenFOAM: The Open Source CFD Toolbox           |
|  \\    /   O peration     | Version:  2406                                  |
|   \\  /    A nd           | Website:  www.openfoam.com                      |
|    \\/     M anipulation  |                                                 |
\*---------------------------------------------------------------------------*/
FoamFile
{
    version     2.0;
    format      ascii;
    arch        "LSB;label=32;scalar=64";
    class       volScalarField;
    location    "0.00011";
    object      k;
}
// * * * * * * * * * * * * * * * * * * * * * * * * * * * * * * * * * * * * * //

dimensions      [0 2 -2 0 0 0 0];

internalField   nonuniform List<scalar> 
16000
(
0.011073712
0.0099071763
0.010032786
0.010001616
0.010002569
0.010003166
0.010001898
0.010001871
0.010001197
0.010000911
0.010000132
0.0099995577
0.0099991472
0.0099990211
0.0099990027
0.009999006
0.00999901
0.0099990128
0.009999011
0.0099990102
0.00999901
0.00999901
0.0099990101
0.0099990101
0.0099990101
0.0099990101
0.0099990101
0.0099990101
0.0099990101
0.0099990101
0.0099990101
0.0099990101
0.0099990101
0.0099990101
0.0099990101
0.0099990101
0.0099990101
0.0099990101
0.0099990101
0.0099990101
0.0099990101
0.0099990101
0.0099990101
0.0099990101
0.0099990101
0.0099990101
0.0099990101
0.0099990101
0.0099990101
0.0099990101
0.0099990101
0.0099990101
0.0099990101
0.0099990101
0.0099990101
0.0099990101
0.0099990101
0.0099990101
0.0099990101
0.0099990101
0.0099990101
0.0099990101
0.0099990101
0.0099990101
0.0099990101
0.0099990101
0.0099990101
0.0099990101
0.0099990101
0.0099990101
0.0099990101
0.0099990101
0.0099990101
0.0099990101
0.0099990101
0.0099990101
0.0099990101
0.0099990101
0.0099990101
0.0099990102
0.011068814
0.0099527462
0.010013494
0.010005141
0.010002659
0.010002537
0.010002014
0.010001455
0.010001183
0.01000065
0.0099997264
0.0099989072
0.0099986773
0.0099987741
0.0099989267
0.0099990012
0.0099989921
0.0099990104
0.0099990119
0.0099990109
0.0099990101
0.00999901
0.00999901
0.0099990101
0.0099990101
0.0099990101
0.0099990101
0.0099990101
0.0099990101
0.0099990101
0.0099990101
0.0099990101
0.0099990101
0.0099990101
0.0099990101
0.0099990101
0.0099990101
0.0099990101
0.0099990101
0.0099990101
0.0099990101
0.0099990101
0.0099990101
0.0099990101
0.0099990101
0.0099990101
0.0099990101
0.0099990101
0.0099990101
0.0099990101
0.0099990101
0.0099990101
0.0099990101
0.0099990101
0.0099990101
0.0099990101
0.0099990101
0.0099990101
0.0099990101
0.0099990101
0.0099990101
0.0099990101
0.0099990101
0.0099990101
0.0099990101
0.0099990101
0.0099990101
0.0099990101
0.0099990101
0.0099990101
0.0099990101
0.0099990101
0.0099990101
0.0099990101
0.0099990101
0.0099990101
0.0099990101
0.0099990101
0.0099990101
0.0099990104
0.011074764
0.0099914847
0.0099840642
0.010015904
0.0099987233
0.010002315
0.010000798
0.010000213
0.010000238
0.0099996401
0.00999847
0.0099975715
0.0099974198
0.0099982059
0.0099988065
0.0099989855
0.0099989851
0.0099990057
0.0099990128
0.0099990117
0.0099990103
0.0099990101
0.00999901
0.00999901
0.0099990101
0.0099990101
0.0099990101
0.0099990101
0.0099990101
0.0099990101
0.0099990101
0.0099990101
0.0099990101
0.0099990101
0.0099990101
0.0099990101
0.0099990101
0.0099990101
0.0099990101
0.0099990101
0.0099990101
0.0099990101
0.0099990101
0.0099990101
0.0099990101
0.0099990101
0.0099990101
0.0099990101
0.0099990101
0.0099990101
0.0099990101
0.0099990101
0.0099990101
0.0099990101
0.0099990101
0.0099990101
0.0099990101
0.0099990101
0.0099990101
0.0099990101
0.0099990101
0.0099990101
0.0099990101
0.0099990101
0.0099990101
0.0099990101
0.0099990101
0.0099990101
0.0099990101
0.0099990101
0.0099990101
0.0099990101
0.0099990101
0.0099990101
0.0099990101
0.0099990101
0.0099990101
0.0099990101
0.0099990101
0.0099990107
0.011069315
0.010052601
0.0099349204
0.010036891
0.0099918104
0.01000307
0.0099986562
0.009999058
0.009998767
0.0099982871
0.0099969342
0.0099957321
0.0099956361
0.0099970268
0.0099983389
0.0099989622
0.0099989773
0.0099990034
0.0099990137
0.0099990127
0.0099990106
0.0099990101
0.00999901
0.00999901
0.0099990101
0.0099990101
0.0099990101
0.0099990101
0.0099990101
0.0099990101
0.0099990101
0.0099990101
0.0099990101
0.0099990101
0.0099990101
0.0099990101
0.0099990101
0.0099990101
0.0099990101
0.0099990101
0.0099990101
0.0099990101
0.0099990101
0.0099990101
0.0099990101
0.0099990101
0.0099990101
0.0099990101
0.0099990101
0.0099990101
0.0099990101
0.0099990101
0.0099990101
0.0099990101
0.0099990101
0.0099990101
0.0099990101
0.0099990101
0.0099990101
0.0099990101
0.0099990101
0.0099990101
0.0099990101
0.0099990101
0.0099990101
0.0099990101
0.0099990101
0.0099990101
0.0099990101
0.0099990101
0.0099990101
0.0099990101
0.0099990101
0.0099990101
0.0099990101
0.0099990101
0.0099990101
0.0099990101
0.0099990101
0.009999011
0.01106152
0.010115895
0.0098824552
0.010061374
0.0099789758
0.010006005
0.0099949457
0.0099991499
0.0099968424
0.0099968257
0.0099952138
0.0099937024
0.0099935939
0.009995497
0.0099975356
0.0099988508
0.0099989673
0.0099990055
0.0099990142
0.0099990139
0.009999011
0.0099990101
0.00999901
0.00999901
0.0099990101
0.0099990101
0.0099990101
0.0099990101
0.0099990101
0.0099990101
0.0099990101
0.0099990101
0.0099990101
0.0099990101
0.0099990101
0.0099990101
0.0099990101
0.0099990101
0.0099990101
0.0099990101
0.0099990101
0.0099990101
0.0099990101
0.0099990101
0.0099990101
0.0099990101
0.0099990101
0.0099990101
0.0099990101
0.0099990101
0.0099990101
0.0099990101
0.0099990101
0.0099990101
0.0099990101
0.0099990101
0.0099990101
0.0099990101
0.0099990101
0.0099990101
0.0099990101
0.0099990101
0.0099990101
0.0099990101
0.0099990101
0.0099990101
0.0099990101
0.0099990101
0.0099990101
0.0099990101
0.0099990101
0.0099990101
0.0099990101
0.0099990101
0.0099990101
0.0099990101
0.0099990101
0.0099990101
0.0099990101
0.0099990113
0.011041794
0.010197064
0.0098170369
0.010090181
0.0099684217
0.010005739
0.009992186
0.0099983233
0.0099937717
0.0099961979
0.0099932922
0.0099916503
0.0099913722
0.009993696
0.0099964551
0.0099985446
0.0099989563
0.0099990071
0.0099990138
0.0099990153
0.0099990116
0.0099990102
0.00999901
0.00999901
0.0099990101
0.0099990101
0.0099990101
0.0099990101
0.0099990101
0.0099990101
0.0099990101
0.0099990101
0.0099990101
0.0099990101
0.0099990101
0.0099990101
0.0099990101
0.0099990101
0.0099990101
0.0099990101
0.0099990101
0.0099990101
0.0099990101
0.0099990101
0.0099990101
0.0099990101
0.0099990101
0.0099990101
0.0099990101
0.0099990101
0.0099990101
0.0099990101
0.0099990101
0.0099990101
0.0099990101
0.0099990101
0.0099990101
0.0099990101
0.0099990101
0.0099990101
0.0099990101
0.0099990101
0.0099990101
0.0099990101
0.0099990101
0.0099990101
0.0099990101
0.0099990101
0.0099990101
0.0099990101
0.0099990101
0.0099990101
0.0099990101
0.0099990101
0.0099990101
0.0099990101
0.0099990101
0.0099990101
0.0099990101
0.0099990116
0.0110112
0.010296458
0.0097359642
0.010125572
0.0099571658
0.0100045
0.0099902357
0.0099962123
0.0099906267
0.0099955451
0.0099909249
0.0099898671
0.0099889982
0.0099916659
0.0099951295
0.0099980611
0.0099989336
0.0099990082
0.0099990125
0.0099990169
0.0099990124
0.0099990103
0.00999901
0.00999901
0.00999901
0.0099990101
0.0099990101
0.0099990101
0.0099990101
0.0099990101
0.0099990101
0.0099990101
0.0099990101
0.0099990101
0.0099990101
0.0099990101
0.0099990101
0.0099990101
0.0099990101
0.0099990101
0.0099990101
0.0099990101
0.0099990101
0.0099990101
0.0099990101
0.0099990101
0.0099990101
0.0099990101
0.0099990101
0.0099990101
0.0099990101
0.0099990101
0.0099990101
0.0099990101
0.0099990101
0.0099990101
0.0099990101
0.0099990101
0.0099990101
0.0099990101
0.0099990101
0.0099990101
0.0099990101
0.0099990101
0.0099990101
0.0099990101
0.0099990101
0.0099990101
0.0099990101
0.0099990101
0.0099990101
0.0099990101
0.0099990101
0.0099990101
0.0099990101
0.0099990101
0.0099990101
0.0099990101
0.0099990101
0.0099990119
0.010965414
0.010419888
0.009638047
0.010167861
0.0099441867
0.010003426
0.0099891105
0.0099917677
0.009989001
0.0099937193
0.0099877714
0.0099889637
0.0099864316
0.0099894385
0.0099935728
0.0099974091
0.0099988321
0.009999009
0.0099990106
0.0099990187
0.0099990133
0.0099990105
0.00999901
0.00999901
0.00999901
0.0099990101
0.0099990101
0.0099990101
0.0099990101
0.0099990101
0.0099990101
0.0099990101
0.0099990101
0.0099990101
0.0099990101
0.0099990101
0.0099990101
0.0099990101
0.0099990101
0.0099990101
0.0099990101
0.0099990101
0.0099990101
0.0099990101
0.0099990101
0.0099990101
0.0099990101
0.0099990101
0.0099990101
0.0099990101
0.0099990101
0.0099990101
0.0099990101
0.0099990101
0.0099990101
0.0099990101
0.0099990101
0.0099990101
0.0099990101
0.0099990101
0.0099990101
0.0099990101
0.0099990101
0.0099990101
0.0099990101
0.0099990101
0.0099990101
0.0099990101
0.0099990101
0.0099990101
0.0099990101
0.0099990101
0.0099990101
0.0099990101
0.0099990101
0.0099990101
0.0099990101
0.0099990101
0.0099990101
0.0099990122
0.010905399
0.010567441
0.0095233783
0.010216072
0.0099310519
0.010000488
0.0099886843
0.0099869763
0.0099875284
0.00999041
0.0099863781
0.0099866978
0.0099839726
0.0099870005
0.0099917915
0.0099965931
0.0099986427
0.0099990098
0.0099990097
0.0099990205
0.0099990144
0.0099990107
0.00999901
0.00999901
0.00999901
0.0099990101
0.0099990101
0.0099990101
0.0099990101
0.0099990101
0.0099990101
0.0099990101
0.0099990101
0.0099990101
0.0099990101
0.0099990101
0.0099990101
0.0099990101
0.0099990101
0.0099990101
0.0099990101
0.0099990101
0.0099990101
0.0099990101
0.0099990101
0.0099990101
0.0099990101
0.0099990101
0.0099990101
0.0099990101
0.0099990101
0.0099990101
0.0099990101
0.0099990101
0.0099990101
0.0099990101
0.0099990101
0.0099990101
0.0099990101
0.0099990101
0.0099990101
0.0099990101
0.0099990101
0.0099990101
0.0099990101
0.0099990101
0.0099990101
0.0099990101
0.0099990101
0.0099990101
0.0099990101
0.0099990101
0.0099990101
0.0099990101
0.0099990101
0.0099990101
0.0099990101
0.0099990101
0.0099990101
0.0099990126
0.010829247
0.010743528
0.009387388
0.01027202
0.009917039
0.0099946841
0.0099906228
0.0099815147
0.0099862716
0.0099866448
0.0099847577
0.0099835364
0.0099820175
0.0099843746
0.0099897838
0.0099956145
0.009998365
0.0099990109
0.0099990101
0.0099990225
0.0099990156
0.009999011
0.00999901
0.00999901
0.00999901
0.0099990101
0.0099990101
0.0099990101
0.0099990101
0.0099990101
0.0099990101
0.0099990101
0.0099990101
0.0099990101
0.0099990101
0.0099990101
0.0099990101
0.0099990101
0.0099990101
0.0099990101
0.0099990101
0.0099990101
0.0099990101
0.0099990101
0.0099990101
0.0099990101
0.0099990101
0.0099990101
0.0099990101
0.0099990101
0.0099990101
0.0099990101
0.0099990101
0.0099990101
0.0099990101
0.0099990101
0.0099990101
0.0099990101
0.0099990101
0.0099990101
0.0099990101
0.0099990101
0.0099990101
0.0099990101
0.0099990101
0.0099990101
0.0099990101
0.0099990101
0.0099990101
0.0099990101
0.0099990101
0.0099990101
0.0099990101
0.0099990101
0.0099990101
0.0099990101
0.0099990101
0.0099990101
0.0099990101
0.009999013
0.010728058
0.010964744
0.0092199488
0.010338736
0.0099023968
0.009981688
0.0099995189
0.0099732282
0.0099856779
0.0099831062
0.0099830857
0.0099797812
0.0099797592
0.0099816317
0.0099875477
0.0099944678
0.0099979968
0.0099990126
0.00999901
0.0099990244
0.009999017
0.0099990114
0.0099990101
0.00999901
0.00999901
0.0099990101
0.0099990101
0.0099990101
0.0099990101
0.0099990101
0.0099990101
0.0099990101
0.0099990101
0.0099990101
0.0099990101
0.0099990101
0.0099990101
0.0099990101
0.0099990101
0.0099990101
0.0099990101
0.0099990101
0.0099990101
0.0099990101
0.0099990101
0.0099990101
0.0099990101
0.0099990101
0.0099990101
0.0099990101
0.0099990101
0.0099990101
0.0099990101
0.0099990101
0.0099990101
0.0099990101
0.0099990101
0.0099990101
0.0099990101
0.0099990101
0.0099990101
0.0099990101
0.0099990101
0.0099990101
0.0099990101
0.0099990101
0.0099990101
0.0099990101
0.0099990101
0.0099990101
0.0099990101
0.0099990101
0.0099990101
0.0099990101
0.0099990101
0.0099990101
0.0099990101
0.0099990101
0.0099990101
0.0099990134
0.010593239
0.011243016
0.0090148021
0.010418124
0.0098858282
0.0099675163
0.01000809
0.009963773
0.0099853595
0.0099799176
0.0099810799
0.0099755943
0.0099769117
0.0099789413
0.0099850655
0.0099931416
0.0099975342
0.0099989923
0.0099990095
0.0099990261
0.0099990186
0.0099990118
0.0099990101
0.00999901
0.00999901
0.0099990101
0.0099990101
0.0099990101
0.0099990101
0.0099990101
0.0099990101
0.0099990101
0.0099990101
0.0099990101
0.0099990101
0.0099990101
0.0099990101
0.0099990101
0.0099990101
0.0099990101
0.0099990101
0.0099990101
0.0099990101
0.0099990101
0.0099990101
0.0099990101
0.0099990101
0.0099990101
0.0099990101
0.0099990101
0.0099990101
0.0099990101
0.0099990101
0.0099990101
0.0099990101
0.0099990101
0.0099990101
0.0099990101
0.0099990101
0.0099990101
0.0099990101
0.0099990101
0.0099990101
0.0099990101
0.0099990101
0.0099990101
0.0099990101
0.0099990101
0.0099990101
0.0099990101
0.0099990101
0.0099990101
0.0099990101
0.0099990101
0.0099990101
0.0099990101
0.0099990101
0.0099990101
0.0099990101
0.0099990138
0.010432254
0.011568082
0.008776409
0.01050912
0.0098657445
0.0099518804
0.010018648
0.0099523515
0.0099855629
0.0099763435
0.0099789516
0.0099717066
0.0099733727
0.009976072
0.0099823206
0.0099916203
0.0099969702
0.0099989302
0.0099990086
0.0099990278
0.0099990203
0.0099990124
0.0099990101
0.00999901
0.00999901
0.0099990101
0.0099990101
0.0099990101
0.0099990101
0.0099990101
0.0099990101
0.0099990101
0.0099990101
0.0099990101
0.0099990101
0.0099990101
0.0099990101
0.0099990101
0.0099990101
0.0099990101
0.0099990101
0.0099990101
0.0099990101
0.0099990101
0.0099990101
0.0099990101
0.0099990101
0.0099990101
0.0099990101
0.0099990101
0.0099990101
0.0099990101
0.0099990101
0.0099990101
0.0099990101
0.0099990101
0.0099990101
0.0099990101
0.0099990101
0.0099990101
0.0099990101
0.0099990101
0.0099990101
0.0099990101
0.0099990101
0.0099990101
0.0099990101
0.0099990101
0.0099990101
0.0099990101
0.0099990101
0.0099990101
0.0099990101
0.0099990101
0.0099990101
0.0099990101
0.0099990101
0.0099990101
0.0099990101
0.0099990143
0.010252828
0.011932846
0.008506827
0.01061066
0.0098429136
0.0099342109
0.010031752
0.0099385346
0.0099862981
0.0099722426
0.0099766687
0.0099681183
0.0099691973
0.0099729854
0.009979291
0.0099898874
0.0099962956
0.0099988241
0.0099990072
0.0099990293
0.0099990223
0.0099990131
0.0099990102
0.00999901
0.00999901
0.0099990101
0.0099990101
0.0099990101
0.0099990101
0.0099990101
0.0099990101
0.0099990101
0.0099990101
0.0099990101
0.0099990101
0.0099990101
0.0099990101
0.0099990101
0.0099990101
0.0099990101
0.0099990101
0.0099990101
0.0099990101
0.0099990101
0.0099990101
0.0099990101
0.0099990101
0.0099990101
0.0099990101
0.0099990101
0.0099990101
0.0099990101
0.0099990101
0.0099990101
0.0099990101
0.0099990101
0.0099990101
0.0099990101
0.0099990101
0.0099990101
0.0099990101
0.0099990101
0.0099990101
0.0099990101
0.0099990101
0.0099990101
0.0099990101
0.0099990101
0.0099990101
0.0099990101
0.0099990101
0.0099990101
0.0099990101
0.0099990101
0.0099990101
0.0099990101
0.0099990101
0.0099990101
0.0099990101
0.0099990148
0.010038313
0.012358583
0.0081943101
0.010725285
0.0098163055
0.0099128847
0.010048598
0.0099214778
0.0099878527
0.0099673807
0.0099741531
0.0099643276
0.0099647861
0.0099696211
0.0099759581
0.0099879258
0.0099955014
0.0099986709
0.0099990057
0.0099990308
0.0099990244
0.0099990139
0.0099990103
0.00999901
0.00999901
0.00999901
0.0099990101
0.0099990101
0.0099990101
0.0099990101
0.0099990101
0.0099990101
0.0099990101
0.0099990101
0.0099990101
0.0099990101
0.0099990101
0.0099990101
0.0099990101
0.0099990101
0.0099990101
0.0099990101
0.0099990101
0.0099990101
0.0099990101
0.0099990101
0.0099990101
0.0099990101
0.0099990101
0.0099990101
0.0099990101
0.0099990101
0.0099990101
0.0099990101
0.0099990101
0.0099990101
0.0099990101
0.0099990101
0.0099990101
0.0099990101
0.0099990101
0.0099990101
0.0099990101
0.0099990101
0.0099990101
0.0099990101
0.0099990101
0.0099990101
0.0099990101
0.0099990101
0.0099990101
0.0099990101
0.0099990101
0.0099990101
0.0099990101
0.0099990101
0.0099990101
0.0099990101
0.0099990101
0.0099990153
0.0097795101
0.012860943
0.0078307031
0.010852744
0.0097846844
0.0098871483
0.010070428
0.0099000142
0.0099909044
0.0099612853
0.0099713388
0.0099601388
0.0099600986
0.0099658963
0.0099722917
0.009985717
0.0099945795
0.0099984679
0.0099990041
0.0099990326
0.0099990268
0.0099990148
0.0099990104
0.00999901
0.00999901
0.00999901
0.0099990101
0.0099990101
0.0099990101
0.0099990101
0.0099990101
0.0099990101
0.0099990101
0.0099990101
0.0099990101
0.0099990101
0.0099990101
0.0099990101
0.0099990101
0.0099990101
0.0099990101
0.0099990101
0.0099990101
0.0099990101
0.0099990101
0.0099990101
0.0099990101
0.0099990101
0.0099990101
0.0099990101
0.0099990101
0.0099990101
0.0099990101
0.0099990101
0.0099990101
0.0099990101
0.0099990101
0.0099990101
0.0099990101
0.0099990101
0.0099990101
0.0099990101
0.0099990101
0.0099990101
0.0099990101
0.0099990101
0.0099990101
0.0099990101
0.0099990101
0.0099990101
0.0099990101
0.0099990101
0.0099990101
0.0099990101
0.0099990101
0.0099990101
0.0099990101
0.0099990101
0.0099990101
0.0099990159
0.0094782406
0.013430288
0.0074260741
0.010984598
0.0097457778
0.0098584184
0.010096643
0.0098739304
0.0099954129
0.0099539252
0.0099682543
0.0099554249
0.0099550324
0.0099616362
0.0099682358
0.0099832366
0.0099935234
0.0099982139
0.009999003
0.0099990351
0.0099990293
0.0099990158
0.0099990105
0.00999901
0.00999901
0.00999901
0.0099990101
0.0099990101
0.0099990101
0.0099990101
0.0099990101
0.0099990101
0.0099990101
0.0099990101
0.0099990101
0.0099990101
0.0099990101
0.0099990101
0.0099990101
0.0099990101
0.0099990101
0.0099990101
0.0099990101
0.0099990101
0.0099990101
0.0099990101
0.0099990101
0.0099990101
0.0099990101
0.0099990101
0.0099990101
0.0099990101
0.0099990101
0.0099990101
0.0099990101
0.0099990101
0.0099990101
0.0099990101
0.0099990101
0.0099990101
0.0099990101
0.0099990101
0.0099990101
0.0099990101
0.0099990101
0.0099990101
0.0099990101
0.0099990101
0.0099990101
0.0099990101
0.0099990101
0.0099990101
0.0099990101
0.0099990101
0.0099990101
0.0099990101
0.0099990101
0.0099990101
0.0099990101
0.0099990165
0.009130672
0.01407333
0.0069890455
0.011105684
0.0097036935
0.0098236955
0.010128742
0.0098428632
0.010001695
0.0099455709
0.0099650691
0.0099502457
0.0099495428
0.0099568453
0.009963761
0.0099804755
0.0099923383
0.0099979119
0.009999003
0.009999039
0.0099990321
0.009999017
0.0099990107
0.00999901
0.00999901
0.00999901
0.0099990101
0.0099990101
0.0099990101
0.0099990101
0.0099990101
0.0099990101
0.0099990101
0.0099990101
0.0099990101
0.0099990101
0.0099990101
0.0099990101
0.0099990101
0.0099990101
0.0099990101
0.0099990101
0.0099990101
0.0099990101
0.0099990101
0.0099990101
0.0099990101
0.0099990101
0.0099990101
0.0099990101
0.0099990101
0.0099990101
0.0099990101
0.0099990101
0.0099990101
0.0099990101
0.0099990101
0.0099990101
0.0099990101
0.0099990101
0.0099990101
0.0099990101
0.0099990101
0.0099990101
0.0099990101
0.0099990101
0.0099990101
0.0099990101
0.0099990101
0.0099990101
0.0099990101
0.0099990101
0.0099990101
0.0099990101
0.0099990101
0.0099990101
0.0099990101
0.0099990101
0.0099990101
0.0099990171
0.00870329
0.014810145
0.006504413
0.011214782
0.0096568828
0.0097802906
0.010168505
0.0098061921
0.010009314
0.0099363325
0.0099618422
0.0099448108
0.0099439537
0.0099517479
0.0099590007
0.0099775221
0.0099910675
0.0099975751
0.0099990038
0.0099990434
0.009999035
0.0099990182
0.0099990108
0.00999901
0.00999901
0.00999901
0.0099990101
0.0099990101
0.0099990101
0.0099990101
0.0099990101
0.0099990101
0.0099990101
0.0099990101
0.0099990101
0.0099990101
0.0099990101
0.0099990101
0.0099990101
0.0099990101
0.0099990101
0.0099990101
0.0099990101
0.0099990101
0.0099990101
0.0099990101
0.0099990101
0.0099990101
0.0099990101
0.0099990101
0.0099990101
0.0099990101
0.0099990101
0.0099990101
0.0099990101
0.0099990101
0.0099990101
0.0099990101
0.0099990101
0.0099990101
0.0099990101
0.0099990101
0.0099990101
0.0099990101
0.0099990101
0.0099990101
0.0099990101
0.0099990101
0.0099990101
0.0099990101
0.0099990101
0.0099990101
0.0099990101
0.0099990101
0.0099990101
0.0099990101
0.0099990101
0.0099990101
0.0099990101
0.0099990178
0.0081315631
0.015786543
0.0058659101
0.011301498
0.0095922007
0.0097294077
0.01021875
0.0097625048
0.010019313
0.0099269627
0.0099584718
0.0099391207
0.0099388123
0.0099467554
0.0099543271
0.0099746321
0.0099898209
0.0099972384
0.009998997
0.009999048
0.0099990378
0.0099990193
0.0099990109
0.00999901
0.00999901
0.00999901
0.0099990101
0.0099990101
0.0099990101
0.0099990101
0.0099990101
0.0099990101
0.0099990101
0.0099990101
0.0099990101
0.0099990101
0.0099990101
0.0099990101
0.0099990101
0.0099990101
0.0099990101
0.0099990101
0.0099990101
0.0099990101
0.0099990101
0.0099990101
0.0099990101
0.0099990101
0.0099990101
0.0099990101
0.0099990101
0.0099990101
0.0099990101
0.0099990101
0.0099990101
0.0099990101
0.0099990101
0.0099990101
0.0099990101
0.0099990101
0.0099990101
0.0099990101
0.0099990101
0.0099990101
0.0099990101
0.0099990101
0.0099990101
0.0099990101
0.0099990101
0.0099990101
0.0099990101
0.0099990101
0.0099990101
0.0099990101
0.0099990101
0.0099990101
0.0099990101
0.0099990101
0.0099990101
0.0099990185
0.0074663922
0.016942772
0.005166244
0.011301955
0.0095331146
0.0096473623
0.010305039
0.0096976038
0.010040337
0.0099140049
0.0099556534
0.0099323627
0.0099351724
0.0099421312
0.0099502227
0.0099721601
0.0099887767
0.0099969633
0.0099989877
0.0099990524
0.0099990403
0.0099990202
0.009999011
0.0099990099
0.00999901
0.00999901
0.0099990101
0.0099990101
0.0099990101
0.0099990101
0.0099990101
0.0099990101
0.0099990101
0.0099990101
0.0099990101
0.0099990101
0.0099990101
0.0099990101
0.0099990101
0.0099990101
0.0099990101
0.0099990101
0.0099990101
0.0099990101
0.0099990101
0.0099990101
0.0099990101
0.0099990101
0.0099990101
0.0099990101
0.0099990101
0.0099990101
0.0099990101
0.0099990101
0.0099990101
0.0099990101
0.0099990101
0.0099990101
0.0099990101
0.0099990101
0.0099990101
0.0099990101
0.0099990101
0.0099990101
0.0099990101
0.0099990101
0.0099990101
0.0099990101
0.0099990101
0.0099990101
0.0099990101
0.0099990101
0.0099990101
0.0099990101
0.0099990101
0.0099990101
0.0099990101
0.0099990101
0.0099990101
0.0099990193
0.0067852173
0.017962682
0.0045484785
0.011182756
0.0094953653
0.0095588688
0.010397181
0.0096320587
0.010063966
0.0099018199
0.0099535612
0.009927691
0.0099340052
0.0099371932
0.0099471308
0.0099704875
0.0099881436
0.009996822
0.0099989877
0.0099990564
0.0099990421
0.0099990206
0.009999011
0.0099990099
0.00999901
0.00999901
0.0099990101
0.0099990101
0.0099990101
0.0099990101
0.0099990101
0.0099990101
0.0099990101
0.0099990101
0.0099990101
0.0099990101
0.0099990101
0.0099990101
0.0099990101
0.0099990101
0.0099990101
0.0099990101
0.0099990101
0.0099990101
0.0099990101
0.0099990101
0.0099990101
0.0099990101
0.0099990101
0.0099990101
0.0099990101
0.0099990101
0.0099990101
0.0099990101
0.0099990101
0.0099990101
0.0099990101
0.0099990101
0.0099990101
0.0099990101
0.0099990101
0.0099990101
0.0099990101
0.0099990101
0.0099990101
0.0099990101
0.0099990101
0.0099990101
0.0099990101
0.0099990101
0.0099990101
0.0099990101
0.0099990101
0.0099990101
0.0099990101
0.0099990101
0.0099990101
0.0099990101
0.0099990101
0.0099990201
0.0062645318
0.01875842
0.0040884572
0.010988793
0.0094880388
0.0094729091
0.010480221
0.0095800245
0.010081464
0.0098965199
0.0099511534
0.0099323114
0.0099290954
0.0099325244
0.0099453404
0.0099699473
0.0099880916
0.0099968719
0.0099990041
0.0099990592
0.0099990428
0.0099990205
0.0099990109
0.0099990099
0.00999901
0.00999901
0.0099990101
0.0099990101
0.0099990101
0.0099990101
0.0099990101
0.0099990101
0.0099990101
0.0099990101
0.0099990101
0.0099990101
0.0099990101
0.0099990101
0.0099990101
0.0099990101
0.0099990101
0.0099990101
0.0099990101
0.0099990101
0.0099990101
0.0099990101
0.0099990101
0.0099990101
0.0099990101
0.0099990101
0.0099990101
0.0099990101
0.0099990101
0.0099990101
0.0099990101
0.0099990101
0.0099990101
0.0099990101
0.0099990101
0.0099990101
0.0099990101
0.0099990101
0.0099990101
0.0099990101
0.0099990101
0.0099990101
0.0099990101
0.0099990101
0.0099990101
0.0099990101
0.0099990101
0.0099990101
0.0099990101
0.0099990101
0.0099990101
0.0099990101
0.0099990101
0.0099990101
0.0099990101
0.0099990208
0.0058961857
0.019060773
0.0037416424
0.010885997
0.0095193135
0.0093877044
0.010541954
0.0095548558
0.010081256
0.0099093509
0.0099479121
0.009937232
0.0099252083
0.0099286285
0.0099450947
0.0099707146
0.0099886853
0.0099971209
0.0099990325
0.0099990602
0.0099990421
0.0099990196
0.0099990108
0.0099990099
0.00999901
0.00999901
0.0099990101
0.0099990101
0.0099990101
0.0099990101
0.0099990101
0.0099990101
0.0099990101
0.0099990101
0.0099990101
0.0099990101
0.0099990101
0.0099990101
0.0099990101
0.0099990101
0.0099990101
0.0099990101
0.0099990101
0.0099990101
0.0099990101
0.0099990101
0.0099990101
0.0099990101
0.0099990101
0.0099990101
0.0099990101
0.0099990101
0.0099990101
0.0099990101
0.0099990101
0.0099990101
0.0099990101
0.0099990101
0.0099990101
0.0099990101
0.0099990101
0.0099990101
0.0099990101
0.0099990101
0.0099990101
0.0099990101
0.0099990101
0.0099990101
0.0099990101
0.0099990101
0.0099990101
0.0099990101
0.0099990101
0.0099990101
0.0099990101
0.0099990101
0.0099990101
0.0099990101
0.0099990101
0.0099990216
0.005297369
0.019080353
0.0033788219
0.010653556
0.0096862218
0.0092310971
0.010565586
0.0095822185
0.010054306
0.0099342057
0.0099489238
0.0099335813
0.009925381
0.0099278918
0.009946597
0.0099726197
0.0099897874
0.0099975074
0.0099990568
0.0099990594
0.0099990401
0.0099990182
0.0099990106
0.0099990099
0.00999901
0.00999901
0.0099990101
0.0099990101
0.0099990101
0.0099990101
0.0099990101
0.0099990101
0.0099990101
0.0099990101
0.0099990101
0.0099990101
0.0099990101
0.0099990101
0.0099990101
0.0099990101
0.0099990101
0.0099990101
0.0099990101
0.0099990101
0.0099990101
0.0099990101
0.0099990101
0.0099990101
0.0099990101
0.0099990101
0.0099990101
0.0099990101
0.0099990101
0.0099990101
0.0099990101
0.0099990101
0.0099990101
0.0099990101
0.0099990101
0.0099990101
0.0099990101
0.0099990101
0.0099990101
0.0099990101
0.0099990101
0.0099990101
0.0099990101
0.0099990101
0.0099990101
0.0099990101
0.0099990101
0.0099990101
0.0099990101
0.0099990101
0.0099990101
0.0099990101
0.0099990101
0.0099990101
0.0099990101
0.0099990223
0.0046125723
0.018375615
0.0031313251
0.010341171
0.0098827547
0.0091718628
0.010520324
0.0096726098
0.010021533
0.0099405896
0.0099527848
0.0099329695
0.00992604
0.0099290868
0.0099494196
0.0099752217
0.0099911298
0.0099979271
0.009999062
0.0099990578
0.0099990372
0.0099990166
0.0099990103
0.0099990099
0.00999901
0.00999901
0.0099990101
0.0099990101
0.0099990101
0.0099990101
0.0099990101
0.0099990101
0.0099990101
0.0099990101
0.0099990101
0.0099990101
0.0099990101
0.0099990101
0.0099990101
0.0099990101
0.0099990101
0.0099990101
0.0099990101
0.0099990101
0.0099990101
0.0099990101
0.0099990101
0.0099990101
0.0099990101
0.0099990101
0.0099990101
0.0099990101
0.0099990101
0.0099990101
0.0099990101
0.0099990101
0.0099990101
0.0099990101
0.0099990101
0.0099990101
0.0099990101
0.0099990101
0.0099990101
0.0099990101
0.0099990101
0.0099990101
0.0099990101
0.0099990101
0.0099990101
0.0099990101
0.0099990101
0.0099990101
0.0099990101
0.0099990101
0.0099990101
0.0099990101
0.0099990101
0.0099990101
0.0099990101
0.009999023
0.0046126772
0.019087154
0.0033025045
0.01014515
0.010222183
0.009154741
0.010427287
0.0097841675
0.009987008
0.0099432165
0.0099555197
0.0099333399
0.0099268136
0.0099312739
0.0099527143
0.0099778439
0.0099923777
0.0099982736
0.0099990612
0.0099990569
0.0099990342
0.0099990152
0.0099990102
0.0099990099
0.00999901
0.00999901
0.0099990101
0.0099990101
0.0099990101
0.0099990101
0.0099990101
0.0099990101
0.0099990101
0.0099990101
0.0099990101
0.0099990101
0.0099990101
0.0099990101
0.0099990101
0.0099990101
0.0099990101
0.0099990101
0.0099990101
0.0099990101
0.0099990101
0.0099990101
0.0099990101
0.0099990101
0.0099990101
0.0099990101
0.0099990101
0.0099990101
0.0099990101
0.0099990101
0.0099990101
0.0099990101
0.0099990101
0.0099990101
0.0099990101
0.0099990101
0.0099990101
0.0099990101
0.0099990101
0.0099990101
0.0099990101
0.0099990101
0.0099990101
0.0099990101
0.0099990101
0.0099990101
0.0099990101
0.0099990101
0.0099990101
0.0099990101
0.0099990101
0.0099990101
0.0099990101
0.0099990101
0.0099990101
0.0099990236
0.0054902004
0.019320327
0.0039107598
0.010579318
0.010227282
0.0094056442
0.010259005
0.0098728264
0.0099710911
0.0099479058
0.0099570177
0.009933982
0.0099271895
0.0099335885
0.0099553379
0.0099797766
0.0099932184
0.0099984805
0.0099990601
0.0099990558
0.0099990319
0.0099990143
0.0099990101
0.0099990099
0.00999901
0.0099990101
0.0099990101
0.0099990101
0.0099990101
0.0099990101
0.0099990101
0.0099990101
0.0099990101
0.0099990101
0.0099990101
0.0099990101
0.0099990101
0.0099990101
0.0099990101
0.0099990101
0.0099990101
0.0099990101
0.0099990101
0.0099990101
0.0099990101
0.0099990101
0.0099990101
0.0099990101
0.0099990101
0.0099990101
0.0099990101
0.0099990101
0.0099990101
0.0099990101
0.0099990101
0.0099990101
0.0099990101
0.0099990101
0.0099990101
0.0099990101
0.0099990101
0.0099990101
0.0099990101
0.0099990101
0.0099990101
0.0099990101
0.0099990101
0.0099990101
0.0099990101
0.0099990101
0.0099990101
0.0099990101
0.0099990101
0.0099990101
0.0099990101
0.0099990101
0.0099990101
0.0099990101
0.0099990101
0.009999024
0.0065799299
0.017219446
0.0048817783
0.01112014
0.010055982
0.0097309668
0.010086797
0.0099198225
0.0099664536
0.0099516213
0.0099583865
0.0099347094
0.0099270539
0.0099351276
0.0099562544
0.0099803936
0.0099934068
0.0099985129
0.0099990601
0.0099990551
0.0099990315
0.0099990142
0.0099990101