/*--------------------------------*- C++ -*----------------------------------*\
| =========                 |                                                 |
| \\      /  F ield         | OpenFOAM: The Open Source CFD Toolbox           |
|  \\    /   O peration     | Version:  2406                                  |
|   \\  /    A nd           | Website:  www.openfoam.com                      |
|    \\/     M anipulation  |                                                 |
\*---------------------------------------------------------------------------*/
FoamFile
{
    version     2.0;
    format      ascii;
    arch        "LSB;label=32;scalar=64";
    class       volScalarField;
    location    "0.00011";
    object      nut;
}
// * * * * * * * * * * * * * * * * * * * * * * * * * * * * * * * * * * * * * //

dimensions      [0 2 -1 0 0 0 0];

internalField   nonuniform List<scalar> 
16000
(
1.0307067e-05
2.203467e-05
4.491086e-05
0.0001210345
8.6881572e-05
9.5069832e-05
0.00012198156
0.00015618733
0.00017326093
0.00014994725
0.00015002514
0.00014461583
0.00015878076
0.00021068522
0.00034245507
0.00086272715
0.00099992146
0.00099992116
0.00099992132
0.00099992139
0.00099992141
0.00099992141
0.00099992143
0.00099992149
0.00099992161
0.0009999218
0.00099992204
0.00099992229
0.00099992252
0.00099992271
0.00099992288
0.00099992301
0.00099992312
0.0009999232
0.00099992327
0.00099992332
0.00099992336
0.0009999234
0.00099992342
0.00099992344
0.00099992346
0.00099992347
0.00099992348
0.00099992349
0.0009999235
0.0009999235
0.00099992351
0.00099992351
0.00099992351
0.00099992351
0.00099992352
0.00099992352
0.00099992352
0.00099992352
0.00099992352
0.00099992352
0.00099992352
0.00099992352
0.00099992352
0.00099992352
0.00099992352
0.00099992352
0.00099992352
0.00099992352
0.00099992352
0.00099992352
0.00099992352
0.00099992352
0.00099992352
0.00099992352
0.00099992352
0.00099992352
0.00099992352
0.00099992352
0.00099992352
0.00099992352
0.00099992352
0.00099992352
0.00099992352
0.00099992354
9.9919313e-06
5.7651987e-05
6.9037693e-05
0.00016411056
9.9264828e-05
0.00013268971
0.00011900968
0.00016084897
0.0001428291
0.00012834477
0.00012781597
0.00012708763
8.6759108e-05
8.5222518e-05
0.00011441605
0.00024705543
0.00092237159
0.00099992142
0.00099992124
0.00099992133
0.0009999214
0.00099992141
0.00099992142
0.00099992147
0.00099992157
0.00099992175
0.00099992198
0.00099992223
0.00099992246
0.00099992267
0.00099992284
0.00099992298
0.00099992309
0.00099992318
0.00099992325
0.00099992331
0.00099992335
0.00099992339
0.00099992342
0.00099992344
0.00099992345
0.00099992347
0.00099992348
0.00099992349
0.0009999235
0.0009999235
0.00099992351
0.00099992351
0.00099992351
0.00099992351
0.00099992352
0.00099992352
0.00099992352
0.00099992352
0.00099992352
0.00099992352
0.00099992352
0.00099992352
0.00099992352
0.00099992352
0.00099992352
0.00099992352
0.00099992352
0.00099992352
0.00099992352
0.00099992352
0.00099992352
0.00099992352
0.00099992352
0.00099992352
0.00099992352
0.00099992352
0.00099992352
0.00099992352
0.00099992352
0.00099992352
0.00099992352
0.00099992352
0.00099992352
0.00099992356
9.7140811e-06
0.00022013538
0.00012573622
7.9096814e-05
8.1164808e-05
0.00017271503
0.00011325657
0.00013276673
0.00012831976
0.00012109351
9.8829655e-05
0.00011214464
5.8757773e-05
5.063468e-05
6.3346172e-05
0.00012513225
0.00038914549
0.00099992219
0.00099992117
0.00099992126
0.00099992138
0.0009999214
0.00099992142
0.00099992145
0.00099992155
0.00099992171
0.00099992193
0.00099992217
0.00099992241
0.00099992262
0.0009999228
0.00099992295
0.00099992307
0.00099992316
0.00099992324
0.0009999233
0.00099992334
0.00099992338
0.00099992341
0.00099992343
0.00099992345
0.00099992347
0.00099992348
0.00099992349
0.00099992349
0.0009999235
0.0009999235
0.00099992351
0.00099992351
0.00099992351
0.00099992352
0.00099992352
0.00099992352
0.00099992352
0.00099992352
0.00099992352
0.00099992352
0.00099992352
0.00099992352
0.00099992352
0.00099992352
0.00099992352
0.00099992352
0.00099992352
0.00099992352
0.00099992352
0.00099992352
0.00099992352
0.00099992352
0.00099992352
0.00099992352
0.00099992352
0.00099992352
0.00099992352
0.00099992352
0.00099992352
0.00099992352
0.00099992352
0.00099992352
0.00099992359
6.6660739e-06
4.7090225e-05
5.6071908e-05
4.776058e-05
5.6141251e-05
0.00018505919
0.00010184336
9.6337505e-05
0.00011549254
0.00011632224
7.2808661e-05
0.00010408096
4.6318088e-05
3.5368748e-05
4.1531568e-05
7.6955618e-05
0.00021209328
0.00099992373
0.00099992108
0.00099992117
0.00099992135
0.0009999214
0.00099992141
0.00099992144
0.00099992152
0.00099992167
0.00099992188
0.00099992212
0.00099992236
0.00099992258
0.00099992277
0.00099992292
0.00099992305
0.00099992315
0.00099992322
0.00099992329
0.00099992334
0.00099992337
0.0009999234
0.00099992343
0.00099992345
0.00099992346
0.00099992347
0.00099992348
0.00099992349
0.0009999235
0.0009999235
0.00099992351
0.00099992351
0.00099992351
0.00099992352
0.00099992352
0.00099992352
0.00099992352
0.00099992352
0.00099992352
0.00099992352
0.00099992352
0.00099992352
0.00099992352
0.00099992352
0.00099992352
0.00099992352
0.00099992352
0.00099992352
0.00099992352
0.00099992352
0.00099992352
0.00099992352
0.00099992352
0.00099992352
0.00099992352
0.00099992352
0.00099992352
0.00099992352
0.00099992352
0.00099992352
0.00099992352
0.00099992352
0.00099992361
5.6950205e-06
2.1196015e-05
3.1862349e-05
3.4579493e-05
4.1892156e-05
0.0001811197
7.7392235e-05
6.9117433e-05
0.00010260108
0.0001119136
5.3933343e-05
9.7975918e-05
3.9738036e-05
2.7048458e-05
2.9962914e-05
5.2501516e-05
0.0001307326
0.00061650264
0.00099992105
0.00099992106
0.00099992132
0.0009999214
0.00099992141
0.00099992144
0.0009999215
0.00099992164
0.00099992184
0.00099992208
0.00099992232
0.00099992254
0.00099992274
0.0009999229
0.00099992303
0.00099992313
0.00099992321
0.00099992328
0.00099992333
0.00099992337
0.0009999234
0.00099992342
0.00099992344
0.00099992346
0.00099992347
0.00099992348
0.00099992349
0.0009999235
0.0009999235
0.00099992351
0.00099992351
0.00099992351
0.00099992352
0.00099992352
0.00099992352
0.00099992352
0.00099992352
0.00099992352
0.00099992352
0.00099992352
0.00099992352
0.00099992352
0.00099992352
0.00099992352
0.00099992352
0.00099992352
0.00099992352
0.00099992352
0.00099992352
0.00099992352
0.00099992352
0.00099992352
0.00099992352
0.00099992352
0.00099992352
0.00099992352
0.00099992352
0.00099992352
0.00099992352
0.00099992352
0.00099992352
0.00099992364
6.1445439e-06
1.2154918e-05
1.8204711e-05
2.7890068e-05
3.2834018e-05
0.00016286889
4.479964e-05
4.8829903e-05
8.3631596e-05
0.00010572174
4.2064269e-05
9.0655214e-05
3.5934427e-05
2.1917451e-05
2.2945105e-05
3.8217537e-05
8.6955024e-05
0.00038250373
0.00099992112
0.00099992094
0.00099992126
0.00099992139
0.00099992141
0.00099992143
0.00099992149
0.00099992162
0.00099992181
0.00099992204
0.00099992228
0.00099992251
0.00099992271
0.00099992287
0.00099992301
0.00099992311
0.0009999232
0.00099992327
0.00099992332
0.00099992336
0.00099992339
0.00099992342
0.00099992344
0.00099992346
0.00099992347
0.00099992348
0.00099992349
0.0009999235
0.0009999235
0.00099992351
0.00099992351
0.00099992351
0.00099992351
0.00099992352
0.00099992352
0.00099992352
0.00099992352
0.00099992352
0.00099992352
0.00099992352
0.00099992352
0.00099992352
0.00099992352
0.00099992352
0.00099992352
0.00099992352
0.00099992352
0.00099992352
0.00099992352
0.00099992352
0.00099992352
0.00099992352
0.00099992352
0.00099992352
0.00099992352
0.00099992352
0.00099992352
0.00099992352
0.00099992352
0.00099992352
0.00099992352
0.00099992367
7.6614379e-06
7.9895623e-06
1.1478384e-05
2.2014373e-05
2.6488347e-05
0.00010362964
2.829926e-05
3.6296791e-05
6.7884025e-05
0.00010050628
3.4181877e-05
7.9674003e-05
3.3523797e-05
1.8487549e-05
1.8321589e-05
2.9112767e-05
6.1992777e-05
0.00025279832
0.00099992136
0.0009999208
0.0009999212
0.00099992138
0.00099992141
0.00099992142
0.00099992147
0.00099992158
0.00099992176
0.00099992198
0.00099992223
0.00099992246
0.00099992266
0.00099992284
0.00099992298
0.00099992309
0.00099992318
0.00099992325
0.00099992331
0.00099992335
0.00099992339
0.00099992342
0.00099992344
0.00099992346
0.00099992347
0.00099992348
0.00099992349
0.0009999235
0.0009999235
0.00099992351
0.00099992351
0.00099992351
0.00099992351
0.00099992352
0.00099992352
0.00099992352
0.00099992352
0.00099992352
0.00099992352
0.00099992352
0.00099992352
0.00099992352
0.00099992352
0.00099992352
0.00099992352
0.00099992352
0.00099992352
0.00099992352
0.00099992352
0.00099992352
0.00099992352
0.00099992352
0.00099992352
0.00099992352
0.00099992352
0.00099992352
0.00099992352
0.00099992352
0.00099992352
0.00099992352
0.00099992352
0.0009999237
7.7011236e-06
5.5412024e-06
7.6844065e-06
1.9141335e-05
2.2375454e-05
5.7899692e-05
1.999969e-05
2.704302e-05
6.0052753e-05
9.8206423e-05
2.8700775e-05
6.9327741e-05
3.1375266e-05
1.6087297e-05
1.5092206e-05
2.2944466e-05
4.6915866e-05
0.00017547057
0.00099992188
0.00099992064
0.00099992112
0.00099992136
0.00099992141
0.00099992142
0.00099992146
0.00099992156
0.00099992173
0.00099992195
0.00099992219
0.00099992242
0.00099992263
0.00099992281
0.00099992296
0.00099992307
0.00099992317
0.00099992324
0.0009999233
0.00099992335
0.00099992338
0.00099992341
0.00099992343
0.00099992345
0.00099992347
0.00099992348
0.00099992349
0.00099992349
0.0009999235
0.00099992351
0.00099992351
0.00099992351
0.00099992351
0.00099992352
0.00099992352
0.00099992352
0.00099992352
0.00099992352
0.00099992352
0.00099992352
0.00099992352
0.00099992352
0.00099992352
0.00099992352
0.00099992352
0.00099992352
0.00099992352
0.00099992352
0.00099992352
0.00099992352
0.00099992352
0.00099992352
0.00099992352
0.00099992352
0.00099992352
0.00099992352
0.00099992352
0.00099992352
0.00099992352
0.00099992352
0.00099992352
0.00099992373
5.5915203e-06
4.160386e-06
5.9002244e-06
2.2397306e-05
1.9700366e-05
3.6733072e-05
1.5043143e-05
2.2005097e-05
5.5834431e-05
9.5753836e-05
2.5633816e-05
5.667742e-05
3.043808e-05
1.4159384e-05
1.2716898e-05
1.854416e-05
3.656622e-05
0.00012662977
0.00099992283
0.00099992047
0.00099992102
0.00099992134
0.00099992141
0.00099992142
0.00099992145
0.00099992154
0.0009999217
0.00099992192
0.00099992216
0.0009999224
0.00099992261
0.00099992279
0.00099992294
0.00099992306
0.00099992316
0.00099992323
0.00099992329
0.00099992334
0.00099992338
0.00099992341
0.00099992343
0.00099992345
0.00099992346
0.00099992348
0.00099992349
0.00099992349
0.0009999235
0.0009999235
0.00099992351
0.00099992351
0.00099992351
0.00099992352
0.00099992352
0.00099992352
0.00099992352
0.00099992352
0.00099992352
0.00099992352
0.00099992352
0.00099992352
0.00099992352
0.00099992352
0.00099992352
0.00099992352
0.00099992352
0.00099992352
0.00099992352
0.00099992352
0.00099992352
0.00099992352
0.00099992352
0.00099992352
0.00099992352
0.00099992352
0.00099992352
0.00099992352
0.00099992352
0.00099992352
0.00099992352
0.00099992376
3.7428807e-06
3.031322e-06
3.8583987e-06
2.7989088e-05
1.7992004e-05
3.2154892e-05
1.2333759e-05
1.865845e-05
5.3615886e-05
6.3124529e-05
2.3063265e-05
4.3362889e-05
3.0009829e-05
1.2560368e-05
1.0912596e-05
1.5292303e-05
2.9170723e-05
9.429075e-05
0.00069785311
0.0009999203
0.00099992091
0.00099992132
0.00099992141
0.00099992142
0.00099992145
0.00099992153
0.00099992168
0.00099992189
0.00099992213
0.00099992237
0.00099992259
0.00099992277
0.00099992293
0.00099992305
0.00099992315
0.00099992323
0.00099992329
0.00099992334
0.00099992338
0.00099992341
0.00099992343
0.00099992345
0.00099992346
0.00099992348
0.00099992349
0.00099992349
0.0009999235
0.0009999235
0.00099992351
0.00099992351
0.00099992351
0.00099992352
0.00099992352
0.00099992352
0.00099992352
0.00099992352
0.00099992352
0.00099992352
0.00099992352
0.00099992352
0.00099992352
0.00099992352
0.00099992352
0.00099992352
0.00099992352
0.00099992352
0.00099992352
0.00099992352
0.00099992352
0.00099992352
0.00099992352
0.00099992352
0.00099992352
0.00099992352
0.00099992352
0.00099992352
0.00099992352
0.00099992352
0.00099992352
0.0009999238
2.463826e-06
2.2925967e-06
2.8075725e-06
4.3227123e-05
1.6326156e-05
2.7956017e-05
1.0791468e-05
1.5000869e-05
5.1091956e-05
4.0482559e-05
2.1064832e-05
3.3006075e-05
3.0314678e-05
1.1229177e-05
9.4842342e-06
1.2814433e-05
2.3709529e-05
7.2000495e-05
0.00049375593
0.00099992013
0.00099992079
0.00099992129
0.0009999214
0.00099992141
0.00099992144
0.00099992152
0.00099992167
0.00099992187
0.00099992211
0.00099992235
0.00099992256
0.00099992275
0.0009999229
0.00099992303
0.00099992313
0.00099992321
0.00099992328
0.00099992333
0.00099992337
0.0009999234
0.00099992343
0.00099992345
0.00099992346
0.00099992347
0.00099992348
0.00099992349
0.0009999235
0.0009999235
0.00099992351
0.00099992351
0.00099992351
0.00099992352
0.00099992352
0.00099992352
0.00099992352
0.00099992352
0.00099992352
0.00099992352
0.00099992352
0.00099992352
0.00099992352
0.00099992352
0.00099992352
0.00099992352
0.00099992352
0.00099992352
0.00099992352
0.00099992352
0.00099992352
0.00099992352
0.00099992352
0.00099992352
0.00099992352
0.00099992352
0.00099992352
0.00099992352
0.00099992352
0.00099992352
0.00099992352
0.00099992384
1.817665e-06
1.847883e-06
2.0681237e-06
2.5992421e-05
1.372688e-05
5.7613871e-05
8.956446e-06
1.4032501e-05
4.2572463e-05
2.6871134e-05
1.963563e-05
2.5726195e-05
3.1583843e-05
1.0127261e-05
8.3138389e-06
1.0873359e-05
1.955921e-05
5.6114362e-05
0.00036055394
0.00099991997
0.00099992065
0.00099992125
0.0009999214
0.00099992141
0.00099992144
0.0009999215
0.00099992164
0.00099992184
0.00099992207
0.00099992231
0.00099992254
0.00099992273
0.00099992289
0.00099992302
0.00099992313
0.00099992321
0.00099992327
0.00099992333
0.00099992337
0.0009999234
0.00099992342
0.00099992344
0.00099992346
0.00099992347
0.00099992348
0.00099992349
0.0009999235
0.0009999235
0.00099992351
0.00099992351
0.00099992351
0.00099992352
0.00099992352
0.00099992352
0.00099992352
0.00099992352
0.00099992352
0.00099992352
0.00099992352
0.00099992352
0.00099992352
0.00099992352
0.00099992352
0.00099992352
0.00099992352
0.00099992352
0.00099992352
0.00099992352
0.00099992352
0.00099992352
0.00099992352
0.00099992352
0.00099992352
0.00099992352
0.00099992352
0.00099992352
0.00099992352
0.00099992352
0.00099992353
0.00099992388
1.4324146e-06
1.4753922e-06
1.5442347e-06
1.8084595e-05
1.1394591e-05
4.7641269e-05
7.4983496e-06
1.3581725e-05
3.3028222e-05
1.8981969e-05
1.8518306e-05
2.0920782e-05
3.3245012e-05
9.2346627e-06
7.3431814e-06
9.3213711e-06
1.6329063e-05
4.4467989e-05
0.00026999122
0.00099991984
0.00099992049
0.0009999212
0.0009999214
0.00099992141
0.00099992143
0.0009999215
0.00099992162
0.00099992182
0.00099992205
0.00099992229
0.00099992252
0.00099992272
0.00099992288
0.00099992301
0.00099992312
0.0009999232
0.00099992327
0.00099992332
0.00099992336
0.0009999234
0.00099992342
0.00099992344
0.00099992346
0.00099992347
0.00099992348
0.00099992349
0.0009999235
0.0009999235
0.00099992351
0.00099992351
0.00099992351
0.00099992352
0.00099992352
0.00099992352
0.00099992352
0.00099992352
0.00099992352
0.00099992352
0.00099992352
0.00099992352
0.00099992352
0.00099992352
0.00099992352
0.00099992352
0.00099992352
0.00099992352
0.00099992352
0.00099992352
0.00099992352
0.00099992352
0.00099992352
0.00099992352
0.00099992352
0.00099992352
0.00099992352
0.00099992352
0.00099992352
0.00099992352
0.00099992353
0.00099992392
1.0727965e-06
1.1528434e-06
1.1692461e-06
1.2377264e-05
9.0712398e-06
3.0456147e-05
6.3382398e-06
1.2637731e-05
2.5039786e-05
1.4069999e-05
1.7764008e-05
1.7673426e-05
3.4049059e-05
8.5090485e-06
6.5287057e-06
8.0573267e-06
1.3766103e-05
3.5752416e-05
0.00020631467
0.00099991975
0.00099992032
0.00099992114
0.00099992139
0.00099992141
0.00099992143
0.00099992149
0.00099992161
0.0009999218
0.00099992204
0.00099992228
0.00099992251
0.00099992271
0.00099992286
0.000999923
0.00099992311
0.0009999232
0.00099992326
0.00099992332
0.00099992336
0.00099992339
0.00099992342
0.00099992344
0.00099992346
0.00099992347
0.00099992348
0.00099992349
0.0009999235
0.0009999235
0.00099992351
0.00099992351
0.00099992351
0.00099992352
0.00099992352
0.00099992352
0.00099992352
0.00099992352
0.00099992352
0.00099992352
0.00099992352
0.00099992352
0.00099992352
0.00099992352
0.00099992352
0.00099992352
0.00099992352
0.00099992352
0.00099992352
0.00099992352
0.00099992352
0.00099992352
0.00099992352
0.00099992352
0.00099992352
0.00099992352
0.00099992352
0.00099992352
0.00099992352
0.00099992352
0.00099992353
0.00099992397
7.8090497e-07
8.9205506e-07
8.8260342e-07
8.3457554e-06
6.8834506e-06
1.9201908e-05
5.3777291e-06
1.1618456e-05
1.8964526e-05
1.0759609e-05
1.7243434e-05
1.5378209e-05
3.2181745e-05
7.8905442e-06
5.8413035e-06
7.0133034e-06
1.1701701e-05
2.9287782e-05
0.00016035841
0.00099991973
0.00099992012
0.00099992107
0.00099992138
0.00099992141
0.00099992143
0.00099992149
0.00099992161
0.00099992178
0.00099992201
0.00099992225
0.00099992248
0.00099992269
0.00099992286
0.00099992299
0.00099992311
0.00099992319
0.00099992326
0.00099992332
0.00099992336
0.00099992339
0.00099992342
0.00099992344
0.00099992346
0.00099992347
0.00099992348
0.00099992349
0.0009999235
0.0009999235
0.00099992351
0.00099992351
0.00099992351
0.00099992352
0.00099992352
0.00099992352
0.00099992352
0.00099992352
0.00099992352
0.00099992352
0.00099992352
0.00099992352
0.00099992352
0.00099992352
0.00099992352
0.00099992352
0.00099992352
0.00099992352
0.00099992352
0.00099992352
0.00099992352
0.00099992352
0.00099992352
0.00099992352
0.00099992352
0.00099992352
0.00099992352
0.00099992352
0.00099992352
0.00099992352
0.00099992353
0.00099992402
5.8566587e-07
6.9010226e-07
6.5951574e-07
6.424953e-06
5.10625e-06
1.3894157e-05
4.5590572e-06
1.0777749e-05
1.4512569e-05
8.4114417e-06
1.6747147e-05
1.36998e-05
2.7764848e-05
7.3241155e-06
5.2479624e-06
6.1374772e-06
1.001738e-05
2.4490633e-05
0.00012657485
0.0009999198
0.00099991991
0.00099992099
0.00099992137
0.00099992141
0.00099992143
0.00099992148
0.00099992159
0.00099992177
0.000999922
0.00099992224
0.00099992248
0.00099992268
0.00099992285
0.00099992299
0.0009999231
0.00099992319
0.00099992326
0.00099992332
0.00099992336
0.00099992339
0.00099992342
0.00099992344
0.00099992346
0.00099992347
0.00099992348
0.00099992349
0.0009999235
0.0009999235
0.00099992351
0.00099992351
0.00099992351
0.00099992352
0.00099992352
0.00099992352
0.00099992352
0.00099992352
0.00099992352
0.00099992352
0.00099992352
0.00099992352
0.00099992352
0.00099992352
0.00099992352
0.00099992352
0.00099992352
0.00099992352
0.00099992352
0.00099992352
0.00099992352
0.00099992352
0.00099992352
0.00099992352
0.00099992352
0.00099992352
0.00099992352
0.00099992352
0.00099992352
0.00099992352
0.00099992353
0.00099992407
4.4037032e-07
5.185553e-07
4.8895765e-07
4.6478321e-06
3.7276074e-06
9.5784473e-06
3.8821684e-06
9.1115453e-06
1.1527293e-05
6.7120552e-06
1.6153385e-05
1.2330283e-05
2.2758813e-05
6.7730714e-06
4.7185294e-06
5.3882292e-06
8.6259882e-06
2.0648871e-05
0.00010147923
0.00099992
0.00099991968
0.0009999209
0.00099992136
0.00099992141
0.00099992143
0.00099992147
0.00099992159
0.00099992177
0.000999922
0.00099992224
0.00099992248
0.00099992268
0.00099992285
0.00099992299
0.0009999231
0.00099992319
0.00099992326
0.00099992331
0.00099992336
0.00099992339
0.00099992342
0.00099992344
0.00099992346
0.00099992347
0.00099992348
0.00099992349
0.0009999235
0.0009999235
0.00099992351
0.00099992351
0.00099992351
0.00099992352
0.00099992352
0.00099992352
0.00099992352
0.00099992352
0.00099992352
0.00099992352
0.00099992352
0.00099992352
0.00099992352
0.00099992352
0.00099992352
0.00099992352
0.00099992352
0.00099992352
0.00099992352
0.00099992352
0.00099992352
0.00099992352
0.00099992352
0.00099992352
0.00099992352
0.00099992352
0.00099992352
0.00099992352
0.00099992352
0.00099992352
0.00099992353
0.00099992413
3.3081762e-07
3.9899278e-07
3.5328329e-07
5.0409921e-06
2.7230128e-06
7.9945963e-06
3.3190339e-06
8.3856038e-06
9.3259675e-06
5.5109067e-06
1.5344747e-05
1.1099138e-05
1.8465772e-05
6.2542726e-06
4.2423819e-06
4.7426499e-06
7.4705609e-06
1.7563644e-05
8.2802978e-05
0.0008704438
0.00099991943
0.0009999208
0.00099992135
0.00099992141
0.00099992143
0.00099992147
0.00099992158
0.00099992177
0.000999922
0.00099992222
0.00099992246
0.00099992267
0.00099992284
0.00099992298
0.0009999231
0.00099992319
0.00099992326
0.00099992331
0.00099992336
0.00099992339
0.00099992342
0.00099992344
0.00099992346
0.00099992347
0.00099992348
0.00099992349
0.0009999235
0.0009999235
0.00099992351
0.00099992351
0.00099992351
0.00099992352
0.00099992352
0.00099992352
0.00099992352
0.00099992352
0.00099992352
0.00099992352
0.00099992352
0.00099992352
0.00099992352
0.00099992352
0.00099992352
0.00099992352
0.00099992352
0.00099992352
0.00099992352
0.00099992352
0.00099992352
0.00099992352
0.00099992352
0.00099992352
0.00099992352
0.00099992352
0.00099992352
0.00099992352
0.00099992352
0.00099992352
0.00099992353
0.00099992419
1.987211e-07
3.176654e-07
2.4751845e-07
3.0524851e-06
1.9243215e-06
5.9162448e-06
2.8813915e-06
6.8671081e-06
7.9130336e-06
5.0203495e-06
1.4461651e-05
1.0021809e-05
1.5216126e-05
5.8058711e-06
3.8323936e-06
4.201356e-06
6.5298741e-06
1.5124803e-05
6.905385e-05
0.00069130654
0.00099991916
0.00099992069
0.00099992134
0.00099992141
0.00099992143
0.00099992147
0.00099992159
0.00099992175
0.00099992198
0.00099992223
0.00099992246
0.00099992267
0.00099992284
0.00099992299
0.0009999231
0.00099992319
0.00099992326
0.00099992331
0.00099992336
0.00099992339
0.00099992342
0.00099992344
0.00099992346
0.00099992347
0.00099992348
0.00099992349
0.0009999235
0.0009999235
0.00099992351
0.00099992351
0.00099992351
0.00099992352
0.00099992352
0.00099992352
0.00099992352
0.00099992352
0.00099992352
0.00099992352
0.00099992352
0.00099992352
0.00099992352
0.00099992352
0.00099992352
0.00099992352
0.00099992352
0.00099992352
0.00099992352
0.00099992352
0.00099992352
0.00099992352
0.00099992352
0.00099992352
0.00099992352
0.00099992352
0.00099992352
0.00099992352
0.00099992352
0.00099992352
0.00099992353
0.00099992426
1.1863369e-07
2.4273144e-07
1.5769028e-07
2.3237631e-06
1.3224839e-06
2.6831626e-06
2.4762809e-06
7.723019e-06
6.5922371e-06
4.8395681e-06
1.2649021e-05
9.1610796e-06
1.3251601e-05
5.7141102e-06
3.5035626e-06
3.7732574e-06
5.8032248e-06
1.3288211e-05
5.9335874e-05
0.00057630466
0.0009999189
0.00099992059
0.00099992132
0.00099992142
0.00099992143
0.00099992148
0.00099992158
0.00099992176
0.00099992199
0.00099992223
0.00099992247
0.00099992268
0.00099992285
0.00099992299
0.0009999231
0.00099992319
0.00099992326
0.00099992332
0.00099992336
0.00099992339
0.00099992342
0.00099992344
0.00099992346
0.00099992347
0.00099992348
0.00099992349
0.0009999235
0.0009999235
0.00099992351
0.00099992351
0.00099992351
0.00099992352
0.00099992352
0.00099992352
0.00099992352
0.00099992352
0.00099992352
0.00099992352
0.00099992352
0.00099992352
0.00099992352
0.00099992352
0.00099992352
0.00099992352
0.00099992352
0.00099992352
0.00099992352
0.00099992352
0.00099992352
0.00099992352
0.00099992352
0.00099992352
0.00099992352
0.00099992352
0.00099992352
0.00099992352
0.00099992352
0.00099992352
0.00099992353
0.00099992433
8.3359892e-08
1.8169732e-07
9.6761383e-08
2.7348802e-06
9.9708032e-07
2.3346909e-06
1.9870758e-06
1.226988e-05
5.2897362e-06
5.0502025e-06
1.061871e-05
8.9865519e-06
1.2781917e-05
5.0259104e-06
3.2541196e-06
3.4581842e-06
5.2834707e-06
1.203094e-05
5.3191619e-05
0.00051040176
0.00099991866
0.00099992051
0.00099992131
0.00099992142
0.00099992143
0.00099992147
0.00099992159
0.00099992177
0.000999922
0.00099992225
0.00099992248
0.00099992269
0.00099992286
0.000999923
0.00099992311
0.0009999232
0.00099992326
0.00099992332
0.00099992336
0.00099992339
0.00099992342
0.00099992344
0.00099992346
0.00099992347
0.00099992348
0.00099992349
0.0009999235
0.0009999235
0.00099992351
0.00099992351
0.00099992351
0.00099992352
0.00099992352
0.00099992352
0.00099992352
0.00099992352
0.00099992352
0.00099992352
0.00099992352
0.00099992352
0.00099992352
0.00099992352
0.00099992352
0.00099992352
0.00099992352
0.00099992352
0.00099992352
0.00099992352
0.00099992352
0.00099992352
0.00099992352
0.00099992352
0.00099992352
0.00099992352
0.00099992352
0.00099992352
0.00099992352
0.00099992352
0.00099992353
0.0009999244
7.0067045e-08
1.6038799e-07
6.3743528e-08
1.5219757e-06
8.1033223e-07
2.037484e-06
1.6149516e-06
7.8426206e-06
4.5610453e-06
6.3299858e-06
8.8167052e-06
9.1594652e-06
1.3657099e-05
4.6508866e-06
3.0706389e-06
3.2384358e-06
4.9542971e-06
1.1315554e-05
5.0444368e-05
0.00049047182
0.00099991848
0.00099992047
0.00099992131
0.00099992142
0.00099992143
0.00099992148
0.00099992161
0.0009999218
0.00099992202
0.00099992227
0.0009999225
0.0009999227
0.00099992287
0.00099992301
0.00099992312
0.00099992321
0.00099992327
0.00099992333
0.00099992337
0.0009999234
0.00099992342
0.00099992344
0.00099992346
0.00099992347
0.00099992348
0.00099992349
0.0009999235
0.0009999235
0.00099992351
0.00099992351
0.00099992351
0.00099992352
0.00099992352
0.00099992352
0.00099992352
0.00099992352
0.00099992352
0.00099992352
0.00099992352
0.00099992352
0.00099992352
0.00099992352
0.00099992352
0.00099992352
0.00099992352
0.00099992352
0.00099992352
0.00099992352
0.00099992352
0.00099992352
0.00099992352
0.00099992352
0.00099992352
0.00099992352
0.00099992352
0.00099992352
0.00099992352
0.00099992352
0.00099992353
0.00099992447
1.064133e-07
1.4573598e-07
1.0439599e-07
2.03366e-06
6.9131772e-07
2.2966239e-06
1.5520186e-06
3.2653046e-06
5.6966661e-06
5.6753663e-06
8.7403978e-06
1.0105846e-05
1.3875458e-05
4.3725402e-06
2.9091098e-06
3.0970299e-06
4.8008728e-06
1.1130799e-05
5.1248587e-05
0.000522393
0.0009999184
0.00099992048
0.00099992132
0.00099992142
0.00099992143
0.00099992149
0.00099992162
0.00099992182
0.00099992205
0.0009999223
0.00099992253
0.00099992273
0.00099992289
0.00099992302
0.00099992313
0.00099992321
0.00099992328
0.00099992333
0.00099992337
0.0009999234
0.00099992343
0.00099992345
0.00099992346
0.00099992347
0.00099992348
0.00099992349
0.0009999235
0.0009999235
0.00099992351
0.00099992351
0.00099992351
0.00099992352
0.00099992352
0.00099992352
0.00099992352
0.00099992352
0.00099992352
0.00099992352
0.00099992352
0.00099992352
0.00099992352
0.00099992352
0.00099992352
0.00099992352
0.00099992352
0.00099992352
0.00099992352
0.00099992352
0.00099992352
0.00099992352
0.00099992352
0.00099992352
0.00099992352
0.00099992352
0.00099992352
0.00099992352
0.00099992352
0.00099992352
0.00099992353
0.00099992454
1.5295369e-07
1.2712858e-07
3.385771e-07
3.1190641e-06
6.650842e-07
2.0611309e-06
1.8459248e-06
2.0511687e-06
5.2871765e-06
3.2717919e-06
7.7419759e-06
1.0713447e-05
1.2355788e-05
4.1346654e-06
2.760966e-06
3.0279412e-06
4.8195571e-06
1.1492231e-05
5.6167387e-05
0.00062779024
0.00099991845
0.00099992055
0.00099992133
0.00099992142
0.00099992144
0.0009999215
0.00099992163
0.00099992183
0.00099992207
0.00099992232
0.00099992255
0.00099992274
0.0009999229
0.00099992303
0.00099992313
0.00099992322
0.00099992328
0.00099992333
0.00099992337
0.0009999234
0.00099992343
0.00099992345
0.00099992346
0.00099992347
0.00099992348
0.00099992349
0.0009999235
0.0009999235
0.00099992351
0.00099992351
0.00099992351
0.00099992352
0.00099992352
0.00099992352
0.00099992352
0.00099992352
0.00099992352
0.00099992352
0.00099992352
0.00099992352
0.00099992352
0.00099992352
0.00099992352
0.00099992352
0.00099992352
0.00099992352
0.00099992352
0.00099992352
0.00099992352
0.00099992352
0.00099992352
0.00099992352
0.00099992352
0.00099992352
0.00099992352
0.00099992352
0.00099992352
0.00099992352
0.00099992353
0.00099992461
2.3723752e-07
1.098561e-07
3.7625719e-07
6.0827961e-07
7.0637273e-07
1.359139e-06
1.7474927e-06
1.5495359e-06
2.9869842e-06
2.4456148e-06
5.926192e-06
9.9915572e-06
1.1143792e-05
3.8225096e-06
2.6559833e-06
3.0324048e-06
5.006731e-06
1.2418313e-05
6.6290002e-05
0.00086527479
0.00099991863
0.00099992066
0.00099992135
0.00099992142
0.00099992145
0.00099992151
0.00099992165
0.00099992186
0.00099992212
0.00099992236
0.00099992258
0.00099992277
0.00099992292
0.00099992305
0.00099992315
0.00099992323
0.00099992329
0.00099992334
0.00099992337
0.0009999234
0.00099992343
0.00099992345
0.00099992346
0.00099992347
0.00099992348
0.00099992349
0.0009999235
0.0009999235
0.00099992351
0.00099992351
0.00099992351
0.00099992352
0.00099992352
0.00099992352
0.00099992352
0.00099992352
0.00099992352
0.00099992352
0.00099992352
0.00099992352
0.00099992352
0.00099992352
0.00099992352
0.00099992352
0.00099992352
0.00099992352
0.00099992352
0.00099992352
0.00099992352
0.00099992352
0.00099992352
0.00099992352
0.00099992352
0.00099992352
0.00099992352
0.00099992352
0.00099992352
0.00099992352
0.00099992353
0.00099992468
1.1319164e-07
9.4241666e-08
8.5674175e-08
1.5882032e-06
7.0391924e-07
1.2828697e-06
1.3586429e-06
2.1891579e-06
2.332357e-06
2.3841533e-06
5.26388e-06
9.0998134e-06
1.0617906e-05
3.5513332e-06
2.589269e-06
3.1034555e-06
5.3462907e-06
1.4096099e-05
8.2972265e-05
0.00099991769
0.00099991888
0.0009999208
0.00099992137
0.00099992142
0.00099992145
0.00099992153
0.00099992168
0.00099992189
0.00099992213
0.00099992237
0.00099992259
0.00099992277
0.00099992293
0.00099992305
0.00099992315
0.00099992323
0.00099992329
0.00099992334
0.00099992337
0.0009999234
0.00099992343
0.00099992345
0.00099992346
0.00099992348
0.00099992348
0.00099992349
0.0009999235
0.0009999235
0.00099992351
0.00099992351
0.00099992351
0.00099992352
0.00099992352
0.00099992352
0.00099992352
0.00099992352
0.00099992352
0.00099992352
0.00099992352
0.00099992352
0.00099992352
0.00099992352
0.00099992352
0.00099992352
0.00099992352
0.00099992352
0.00099992352
0.00099992352
0.00099992352
0.00099992352
0.00099992352
0.00099992352
0.00099992352
0.00099992352
0.00099992352
0.00099992352
0.00099992352
0.00099992352
0.00099992353
0.00099992475
7.7076574e-08
1.6732373e-07
1.4507216e-07
6.5663365e-06
3.7758692e-07
6.1849573e-06
1.1579125e-06
4.4134038e-06
2.6620131e-06
2.8633897e-06
4.8900624e-06