/*--------------------------------*- C++ -*----------------------------------*\
| =========                 |                                                 |
| \\      /  F ield         | OpenFOAM: The Open Source CFD Toolbox           |
|  \\    /   O peration     | Version:  2406                                  |
|   \\  /    A nd           | Website:  www.openfoam.com                      |
|    \\/     M anipulation  |                                                 |
\*---------------------------------------------------------------------------*/
FoamFile
{
    version     2.0;
    format      ascii;
    arch        "LSB;label=32;scalar=64";
    class       volScalarField;
    location    "0.00011";
    object      omega;
}
// * * * * * * * * * * * * * * * * * * * * * * * * * * * * * * * * * * * * * //

dimensions      [0 0 -1 0 0 0 0];

internalField   nonuniform List<scalar> 
16000
(
1074.3805
10.145003
10.033675
10.00604
10.008891
10.007883
10.005238
10.006223
10.005641
10.007012
10.005108
10.002931
10.000908
9.9998021
9.9996339
9.99974
9.9997954
9.9998012
9.9997978
9.9997963
9.999796
9.9997959
9.9997958
9.9997952
9.9997939
9.999792
9.9997896
9.9997872
9.9997849
9.9997829
9.9997812
9.9997799
9.9997788
9.999778
9.9997773
9.9997768
9.9997764
9.9997761
9.9997758
9.9997756
9.9997754
9.9997753
9.9997752
9.9997751
9.9997751
9.999775
9.999775
9.9997749
9.9997749
9.9997749
9.9997749
9.9997749
9.9997748
9.9997748
9.9997748
9.9997748
9.9997748
9.9997748
9.9997748
9.9997748
9.9997748
9.9997748
9.9997748
9.9997748
9.9997748
9.9997748
9.9997748
9.9997748
9.9997748
9.9997748
9.9997748
9.9997748
9.9997748
9.9997748
9.9997748
9.9997748
9.9997748
9.9997748
9.9997748
9.9997748
1107.7753
10.204237
10.013349
10.005668
10.009908
10.005723
10.007889
10.00723
10.008825
10.009661
10.010504
10.009536
10.00843
10.003083
10.000452
9.9996905
9.9997323
9.9997962
9.9997995
9.9997975
9.9997962
9.999796
9.9997958
9.9997954
9.9997943
9.9997925
9.9997902
9.9997878
9.9997854
9.9997834
9.9997816
9.9997802
9.9997791
9.9997782
9.9997775
9.9997769
9.9997765
9.9997761
9.9997759
9.9997757
9.9997755
9.9997753
9.9997752
9.9997752
9.9997751
9.999775
9.999775
9.9997749
9.9997749
9.9997749
9.9997749
9.9997749
9.9997748
9.9997748
9.9997748
9.9997748
9.9997748
9.9997748
9.9997748
9.9997748
9.9997748
9.9997748
9.9997748
9.9997748
9.9997748
9.9997748
9.9997748
9.9997748
9.9997748
9.9997748
9.9997748
9.9997748
9.9997748
9.9997748
9.9997748
9.9997748
9.9997748
9.9997748
9.9997748
9.9997748
1140.0733
10.423338
10.011798
10.017439
10.010817
10.003849
10.009719
10.008169
10.013861
10.013067
10.015578
10.01675
10.017708
10.010429
10.004047
10.000135
9.9996704
9.9997838
9.9998011
9.9997991
9.9997965
9.999796
9.9997959
9.9997955
9.9997946
9.999793
9.9997908
9.9997883
9.9997859
9.9997838
9.999782
9.9997805
9.9997793
9.9997784
9.9997776
9.9997771
9.9997766
9.9997762
9.9997759
9.9997757
9.9997755
9.9997754
9.9997753
9.9997752
9.9997751
9.999775
9.999775
9.999775
9.9997749
9.9997749
9.9997749
9.9997749
9.9997748
9.9997748
9.9997748
9.9997748
9.9997748
9.9997748
9.9997748
9.9997748
9.9997748
9.9997748
9.9997748
9.9997748
9.9997748
9.9997748
9.9997748
9.9997748
9.9997748
9.9997748
9.9997748
9.9997748
9.9997748
9.9997748
9.9997748
9.9997748
9.9997748
9.9997748
9.9997748
9.9997748
1170.4505
11.997352
10.005063
10.033834
10.013972
10.005333
10.010034
10.010635
10.019048
10.016586
10.020698
10.022973
10.025756
10.018011
10.008988
10.00167
9.9996796
9.9997661
9.9998029
9.999801
9.9997971
9.9997961
9.9997959
9.9997956
9.9997948
9.9997933
9.9997912
9.9997888
9.9997864
9.9997842
9.9997823
9.9997808
9.9997796
9.9997786
9.9997778
9.9997772
9.9997767
9.9997763
9.999776
9.9997758
9.9997756
9.9997754
9.9997753
9.9997752
9.9997751
9.999775
9.999775
9.999775
9.9997749
9.9997749
9.9997749
9.9997749
9.9997748
9.9997748
9.9997748
9.9997748
9.9997748
9.9997748
9.9997748
9.9997748
9.9997748
9.9997748
9.9997748
9.9997748
9.9997748
9.9997748
9.9997748
9.9997748
9.9997748
9.9997748
9.9997748
9.9997748
9.9997748
9.9997748
9.9997748
9.9997748
9.9997748
9.9997748
9.9997748
9.9997748
1199.1538
14.490813
10.000867
10.056523
10.013777
10.009733
10.012983
10.014078
10.024614
10.019881
10.025967
10.029095
10.034061
10.026022
10.014576
10.004419
9.9998865
9.9997435
9.9998037
9.9998033
9.9997979
9.9997962
9.9997959
9.9997957
9.999795
9.9997936
9.9997916
9.9997893
9.9997868
9.9997846
9.9997827
9.9997811
9.9997798
9.9997787
9.9997779
9.9997773
9.9997768
9.9997764
9.999776
9.9997758
9.9997756
9.9997754
9.9997753
9.9997752
9.9997751
9.9997751
9.999775
9.999775
9.9997749
9.9997749
9.9997749
9.9997749
9.9997749
9.9997748
9.9997748
9.9997748
9.9997748
9.9997748
9.9997748
9.9997748
9.9997748
9.9997748
9.9997748
9.9997748
9.9997748
9.9997748
9.9997748
9.9997748
9.9997748
9.9997748
9.9997748
9.9997748
9.9997748
9.9997748
9.9997748
9.9997748
9.9997748
9.9997748
9.9997748
9.9997749
1225.7768
17.798666
9.9966417
10.080434
10.015748
10.014654
10.018546
10.019061
10.030372
10.023771
10.032131
10.035107
10.042776
10.034315
10.020941
10.007633
10.000521
9.9997243
9.9998026
9.9998059
9.999799
9.9997963
9.9997959
9.9997957
9.9997951
9.9997939
9.999792
9.9997896
9.9997872
9.9997849
9.999783
9.9997813
9.99978
9.9997789
9.999778
9.9997774
9.9997768
9.9997764
9.9997761
9.9997758
9.9997756
9.9997755
9.9997753
9.9997752
9.9997751
9.9997751
9.999775
9.999775
9.9997749
9.9997749
9.9997749
9.9997749
9.9997749
9.9997748
9.9997748
9.9997748
9.9997748
9.9997748
9.9997748
9.9997748
9.9997748
9.9997748
9.9997748
9.9997748
9.9997748
9.9997748
9.9997748
9.9997748
9.9997748
9.9997748
9.9997748
9.9997748
9.9997748
9.9997748
9.9997748
9.9997748
9.9997748
9.9997748
9.9997748
9.9997749
1250.3651
21.969608
9.9912223
10.109142
10.019764
10.019953
10.026445
10.024198
10.035916
10.027901
10.038706
10.041503
10.051938
10.043191
10.028156
10.011364
10.001852
9.9997274
9.9997989
9.9998089
9.9998004
9.9997965
9.9997959
9.9997958
9.9997953
9.9997942
9.9997925
9.9997902
9.9997878
9.9997855
9.9997834
9.9997817
9.9997803
9.9997791
9.9997782
9.9997775
9.999777
9.9997765
9.9997762
9.9997759
9.9997757
9.9997755
9.9997753
9.9997752
9.9997751
9.9997751
9.999775
9.999775
9.9997749
9.9997749
9.9997749
9.9997749
9.9997749
9.9997748
9.9997748
9.9997748
9.9997748
9.9997748
9.9997748
9.9997748
9.9997748
9.9997748
9.9997748
9.9997748
9.9997748
9.9997748
9.9997748
9.9997748
9.9997748
9.9997748
9.9997748
9.9997748
9.9997748
9.9997748
9.9997748
9.9997748
9.9997748
9.9997748
9.9997748
9.9997749
1272.7959
27.465354
9.9780257
10.142695
10.025143
10.026275
10.036675
10.030638
10.040763
10.032971
10.045118
10.048972
10.061683
10.052783
10.036216
10.015659
10.003567
9.9997871
9.9997918
9.9998122
9.9998021
9.9997969
9.9997959
9.9997958
9.9997954
9.9997944
9.9997928
9.9997906
9.9997881
9.9997858
9.9997837
9.9997819
9.9997805
9.9997793
9.9997784
9.9997776
9.999777
9.9997766
9.9997762
9.9997759
9.9997757
9.9997755
9.9997754
9.9997752
9.9997752
9.9997751
9.999775
9.999775
9.9997749
9.9997749
9.9997749
9.9997749
9.9997749
9.9997748
9.9997748
9.9997748
9.9997748
9.9997748
9.9997748
9.9997748
9.9997748
9.9997748
9.9997748
9.9997748
9.9997748
9.9997748
9.9997748
9.9997748
9.9997748
9.9997748
9.9997748
9.9997748
9.9997748
9.9997748
9.9997748
9.9997748
9.9997748
9.9997748
9.9997748
9.9997749
1293.1904
34.28278
9.9507278
10.177966
10.031725
10.032579
10.049672
10.037447
10.045986
10.037728
10.052661
10.056074
10.071609
10.063274
10.045093
10.020571
10.005599
9.9999578
9.9997813
9.9998158
9.9998041
9.9997973
9.999796
9.9997958
9.9997955
9.9997946
9.999793
9.9997909
9.9997885
9.9997861
9.9997839
9.9997821
9.9997806
9.9997794
9.9997785
9.9997777
9.9997771
9.9997766
9.9997763
9.999776
9.9997757
9.9997755
9.9997754
9.9997753
9.9997752
9.9997751
9.999775
9.999775
9.9997749
9.9997749
9.9997749
9.9997749
9.9997749
9.9997748
9.9997748
9.9997748
9.9997748
9.9997748
9.9997748
9.9997748
9.9997748
9.9997748
9.9997748
9.9997748
9.9997748
9.9997748
9.9997748
9.9997748
9.9997748
9.9997748
9.9997748
9.9997748
9.9997748
9.9997748
9.9997748
9.9997748
9.9997748
9.9997748
9.9997748
9.9997749
1311.6346
42.673178
9.9193053
10.215685
10.038161
10.037645
10.065884
10.043405
10.051537
10.042913
10.061001
10.063077
10.082642
10.074783
10.054751
10.026163
10.007981
10.000322
9.9997681
9.9998194
9.9998065
9.9997978
9.999796
9.9997958
9.9997956
9.9997947
9.9997932
9.9997911
9.9997887
9.9997863
9.9997841
9.9997823
9.9997808
9.9997795
9.9997785
9.9997778
9.9997772
9.9997767
9.9997763
9.999776
9.9997757
9.9997756
9.9997754
9.9997753
9.9997752
9.9997751
9.999775
9.999775
9.999775
9.9997749
9.9997749
9.9997749
9.9997749
9.9997748
9.9997748
9.9997748
9.9997748
9.9997748
9.9997748
9.9997748
9.9997748
9.9997748
9.9997748
9.9997748
9.9997748
9.9997748
9.9997748
9.9997748
9.9997748
9.9997748
9.9997748
9.9997748
9.9997748
9.9997748
9.9997748
9.9997748
9.9997748
9.9997748
9.9997748
9.999775
1328.0119
53.500903
9.9048677
10.247236
10.044916
10.038077
10.087165
10.05038
10.057267
10.048941
10.070044
10.070231
10.093908
10.087451
10.065259
10.03249
10.01075
10.000999
9.9997539
9.999823
9.9998091
9.9997985
9.999796
9.9997959
9.9997956
9.9997948
9.9997934
9.9997913
9.9997889
9.9997865
9.9997845
9.9997826
9.999781
9.9997797
9.9997787
9.9997779
9.9997772
9.9997767
9.9997763
9.999776
9.9997758
9.9997756
9.9997754
9.9997753
9.9997752
9.9997751
9.999775
9.999775
9.999775
9.9997749
9.9997749
9.9997749
9.9997749
9.9997748
9.9997748
9.9997748
9.9997748
9.9997748
9.9997748
9.9997748
9.9997748
9.9997748
9.9997748
9.9997748
9.9997748
9.9997748
9.9997748
9.9997748
9.9997748
9.9997748
9.9997748
9.9997748
9.9997748
9.9997748
9.9997748
9.9997748
9.9997748
9.9997748
9.9997748
9.999775
1342.1841
67.806062
9.9121906
10.28182
10.052725
10.030373
10.111603
10.057996
10.063543
10.05545
10.079927
10.077711
10.105186
10.10153
10.076895
10.03963
10.013951
10.001967
9.9997424
9.9998264
9.9998121
9.9997994
9.9997961
9.9997958
9.9997956
9.999795
9.9997937
9.9997917
9.9997893
9.9997869
9.9997847
9.9997827
9.9997811
9.9997798
9.9997788
9.9997779
9.9997773
9.9997768
9.9997764
9.999776
9.9997758
9.9997756
9.9997754
9.9997753
9.9997752
9.9997751
9.9997751
9.999775
9.999775
9.9997749
9.9997749
9.9997749
9.9997749
9.9997748
9.9997748
9.9997748
9.9997748
9.9997748
9.9997748
9.9997748
9.9997748
9.9997748
9.9997748
9.9997748
9.9997748
9.9997748
9.9997748
9.9997748
9.9997748
9.9997748
9.9997748
9.9997748
9.9997748
9.9997748
9.9997748
9.9997748
9.9997748
9.9997748
9.9997748
9.999775
1354.6336
85.639507
9.9080685
10.3279
10.059902
10.025693
10.140235
10.063439
10.070736
10.063044
10.090647
10.086385
10.116422
10.116782
10.089754
10.047666
10.017636
10.00312
9.9997398
9.9998294
9.9998154
9.9998004
9.9997962
9.9997959
9.9997957
9.9997951
9.9997938
9.9997919
9.9997895
9.9997871
9.9997848
9.9997829
9.9997812
9.9997799
9.9997788
9.999778
9.9997773
9.9997768
9.9997764
9.9997761
9.9997758
9.9997756
9.9997754
9.9997753
9.9997752
9.9997751
9.9997751
9.999775
9.999775
9.9997749
9.9997749
9.9997749
9.9997749
9.9997748
9.9997748
9.9997748
9.9997748
9.9997748
9.9997748
9.9997748
9.9997748
9.9997748
9.9997748
9.9997748
9.9997748
9.9997748
9.9997748
9.9997748
9.9997748
9.9997748
9.9997748
9.9997748
9.9997748
9.9997748
9.9997748
9.9997748
9.9997748
9.9997748
9.9997748
9.999775
1365.8828
106.91764
9.8894824
10.390308
10.069514
10.023373
10.174065
10.06833
10.07913
10.07191
10.102051
10.096299
10.127812
10.133256
10.103964
10.056699
10.021871
10.004488
9.9997561
9.9998318
9.9998191
9.9998017
9.9997963
9.9997958
9.9997957
9.9997951
9.9997939
9.999792
9.9997896
9.9997872
9.9997849
9.9997829
9.9997814
9.99978
9.9997789
9.9997781
9.9997774
9.9997769
9.9997764
9.9997761
9.9997758
9.9997756
9.9997754
9.9997753
9.9997752
9.9997751
9.9997751
9.999775
9.999775
9.9997749
9.9997749
9.9997749
9.9997749
9.9997748
9.9997748
9.9997748
9.9997748
9.9997748
9.9997748
9.9997748
9.9997748
9.9997748
9.9997748
9.9997748
9.9997748
9.9997748
9.9997748
9.9997748
9.9997748
9.9997748
9.9997748
9.9997748
9.9997748
9.9997748
9.9997748
9.9997748
9.9997748
9.9997748
9.9997748
9.9997751
1375.4855
133.65477
9.8589092
10.465945
10.083248
10.018989
10.214655
10.072257
10.089225
10.081802
10.113953
10.107075
10.140009
10.151071
10.119646
10.066826
10.026724
10.006101
9.9998068
9.9998335
9.9998232
9.9998031
9.9997965
9.9997958
9.9997957
9.9997952
9.999794
9.9997922
9.9997899
9.9997875
9.9997852
9.9997832
9.9997815
9.9997801
9.999779
9.9997781
9.9997774
9.9997769
9.9997764
9.9997761
9.9997758
9.9997756
9.9997755
9.9997753
9.9997752
9.9997751
9.9997751
9.999775
9.999775
9.9997749
9.9997749
9.9997749
9.9997749
9.9997748
9.9997748
9.9997748
9.9997748
9.9997748
9.9997748
9.9997748
9.9997748
9.9997748
9.9997748
9.9997748
9.9997748
9.9997748
9.9997748
9.9997748
9.9997748
9.9997748
9.9997748
9.9997748
9.9997748
9.9997748
9.9997748
9.9997748
9.9997748
9.9997748
9.9997748
9.9997751
1383.1723
168.3119
9.8206769
10.548575
10.101777
10.010524
10.263759
10.074595
10.101727
10.092567
10.126468
10.118861
10.153542
10.170518
10.137
10.078159
10.032264
10.007972
9.9999142
9.9998345
9.9998276
9.9998049
9.9997966
9.9997958
9.9997957
9.9997953
9.9997941
9.9997923
9.99979
9.9997876
9.9997853
9.9997832
9.9997815
9.9997801
9.999779
9.9997781
9.9997774
9.9997769
9.9997764
9.9997761
9.9997758
9.9997756
9.9997755
9.9997753
9.9997752
9.9997751
9.9997751
9.999775
9.999775
9.9997749
9.9997749
9.9997749
9.9997749
9.9997748
9.9997748
9.9997748
9.9997748
9.9997748
9.9997748
9.9997748
9.9997748
9.9997748
9.9997748
9.9997748
9.9997748
9.9997748
9.9997748
9.9997748
9.9997748
9.9997748
9.9997748
9.9997748
9.9997748
9.9997748
9.9997748
9.9997748
9.9997748
9.9997748
9.9997748
9.9997751
1389.1919
212.91432
9.7784069
10.656338
10.125739
10.013546
10.319723
10.080489
10.116683
10.105111
10.140645
10.132488
10.169193
10.192177
10.156402
10.090852
10.03856
10.010114
10.000108
9.9998351
9.9998325
9.9998068
9.9997969
9.9997958
9.9997957
9.9997953
9.9997942
9.9997924
9.9997901
9.9997876
9.9997853
9.9997832
9.9997815
9.9997801
9.9997791
9.9997782
9.9997775
9.9997769
9.9997764
9.9997761
9.9997758
9.9997756
9.9997755
9.9997753
9.9997752
9.9997751
9.9997751
9.999775
9.999775
9.9997749
9.9997749
9.9997749
9.9997749
9.9997748
9.9997748
9.9997748
9.9997748
9.9997748
9.9997748
9.9997748
9.9997748
9.9997748
9.9997748
9.9997748
9.9997748
9.9997748
9.9997748
9.9997748
9.9997748
9.9997748
9.9997748
9.9997748
9.9997748
9.9997748
9.9997748
9.9997748
9.9997748
9.9997748
9.9997748
9.9997752
1393.0872
271.2732
9.7595439
10.73897
10.161518
9.9995599
10.38613
10.080054
10.135372
10.12155
10.158519
10.148941
10.187679
10.216773
10.178279
10.105088
10.045637
10.01252
10.000419
9.9998357
9.9998377
9.999809
9.9997971
9.9997958
9.9997957
9.9997953
9.9997942
9.9997924
9.9997901
9.9997878
9.9997854
9.9997834
9.9997816
9.9997802
9.9997791
9.9997782
9.9997775
9.9997769
9.9997765
9.9997761
9.9997759
9.9997756
9.9997755
9.9997753
9.9997752
9.9997751
9.9997751
9.999775
9.999775
9.9997749
9.9997749
9.9997749
9.9997749
9.9997748
9.9997748
9.9997748
9.9997748
9.9997748
9.9997748
9.9997748
9.9997748
9.9997748
9.9997748
9.9997748
9.9997748
9.9997748
9.9997748
9.9997748
9.9997748
9.9997748
9.9997748
9.9997748
9.9997748
9.9997748
9.9997748
9.9997748
9.9997748
9.9997748
9.9997748
9.9997752
1393.707
348.54208
9.7648107
10.905755
10.224271
10.012333
10.459928
10.08864
10.155862
10.142664
10.179976
10.167989
10.208897
10.244199
10.202427
10.120754
10.053334
10.015117
10.000863
9.9998371
9.9998433
9.9998112
9.9997974
9.9997958
9.9997957
9.9997953
9.9997942
9.9997925
9.9997902
9.9997878
9.9997854
9.9997833
9.9997816
9.9997802
9.999779
9.9997782
9.9997774
9.9997769
9.9997765
9.9997761
9.9997758
9.9997756
9.9997754
9.9997753
9.9997752
9.9997751
9.9997751
9.999775
9.999775
9.9997749
9.9997749
9.9997749
9.9997749
9.9997748
9.9997748
9.9997748
9.9997748
9.9997748
9.9997748
9.9997748
9.9997748
9.9997748
9.9997748
9.9997748
9.9997748
9.9997748
9.9997748
9.9997748
9.9997748
9.9997748
9.9997748
9.9997748
9.9997748
9.9997748
9.9997748
9.9997748
9.9997748
9.9997748
9.9997748
9.9997752
1386.4659
468.85211
9.8036842
11.092785
10.308355
10.028269
10.550871
10.063928
10.188563
10.162256
10.203086
10.186032
10.231204
10.272965
10.227398
10.13682
10.061128
10.017722
10.001332
9.9998398
9.9998488
9.9998134
9.9997977
9.9997958
9.9997957
9.9997953
9.9997942
9.9997925
9.9997902
9.9997877
9.9997853
9.9997833
9.9997815
9.9997801
9.999779
9.9997781
9.9997774
9.9997769
9.9997764
9.9997761
9.9997758
9.9997756
9.9997754
9.9997753
9.9997752
9.9997751
9.9997751
9.999775
9.999775
9.9997749
9.9997749
9.9997749
9.9997749
9.9997748
9.9997748
9.9997748
9.9997748
9.9997748
9.9997748
9.9997748
9.9997748
9.9997748
9.9997748
9.9997748
9.9997748
9.9997748
9.9997748
9.9997748
9.9997748
9.9997748
9.9997748
9.9997748
9.9997748
9.9997748
9.9997748
9.9997748
9.9997748
9.9997748
9.9997748
9.9997753
1374.5464
637.96912
9.8781888
11.101329
10.404537
9.8931549
10.704571
10.023277
10.235178
10.169527
10.222129
10.194945
10.249332
10.300963
10.250854
10.151585
10.068155
10.019991
10.001721
9.9998441
9.9998537
9.9998151
9.9997978
9.9997958
9.9997957
9.9997953
9.9997942
9.9997924
9.99979
9.9997876
9.9997852
9.9997832
9.9997814
9.9997801
9.9997789
9.9997781
9.9997774
9.9997768
9.9997764
9.9997761
9.9997758
9.9997756
9.9997754
9.9997753
9.9997752
9.9997751
9.9997751
9.999775
9.999775
9.9997749
9.9997749
9.9997749
9.9997749
9.9997748
9.9997748
9.9997748
9.9997748
9.9997748
9.9997748
9.9997748
9.9997748
9.9997748
9.9997748
9.9997748
9.9997748
9.9997748
9.9997748
9.9997748
9.9997748
9.9997748
9.9997748
9.9997748
9.9997748
9.9997748
9.9997748
9.9997748
9.9997748
9.9997748
9.9997748
9.9997753
1360.1707
818.49212
9.7684993
11.032547
10.527672
9.84715
10.859107
9.9896306
10.278877
10.161957
10.232242
10.20049
10.261362
10.32517
10.27076
10.163403
10.073288
10.02146
10.00193
9.9998501
9.9998573
9.9998159
9.9997979
9.9997957
9.9997957
9.9997952
9.999794
9.999792
9.9997899
9.9997874
9.999785
9.999783
9.9997813
9.99978
9.9997789
9.999778
9.9997773
9.9997768
9.9997764
9.999776
9.9997758
9.9997756
9.9997754
9.9997753
9.9997752
9.9997751
9.9997751
9.999775
9.999775
9.9997749
9.9997749
9.9997749
9.9997749
9.9997748
9.9997748
9.9997748
9.9997748
9.9997748
9.9997748
9.9997748
9.9997748
9.9997748
9.9997748
9.9997748
9.9997748
9.9997748
9.9997748
9.9997748
9.9997748
9.9997748
9.9997748
9.9997748
9.9997748
9.9997748
9.9997748
9.9997748
9.9997748
9.9997748
9.9997748
9.9997754
1346.1004
1010.5124
8.77848
10.762346
10.654329
9.807175
10.92755
10.001196
10.309152
10.155533
10.205197
10.224691
10.284367
10.343829
10.286295
10.170621
10.07546
10.021699
10.001874
9.9998576
9.9998587
9.9998157
9.9997977
9.9997957
9.9997956
9.9997951
9.9997938
9.9997919
9.9997895
9.999787
9.9997847
9.9997827
9.9997811
9.9997798
9.9997787
9.9997779
9.9997773
9.9997768
9.9997764
9.999776
9.9997758
9.9997756
9.9997754
9.9997753
9.9997752
9.9997751
9.9997751
9.999775
9.999775
9.9997749
9.9997749
9.9997749
9.9997749
9.9997748
9.9997748
9.9997748
9.9997748
9.9997748
9.9997748
9.9997748
9.9997748
9.9997748
9.9997748
9.9997748
9.9997748
9.9997748
9.9997748
9.9997748
9.9997748
9.9997748
9.9997748
9.9997748
9.9997748
9.9997748
9.9997748
9.9997748
9.9997748
9.9997748
9.9997748
9.9997754
1341.1193
1167.0809
8.6625822
10.741635
10.727214
9.8461506
10.89497
10.087568
10.334253
10.211954
10.228143
10.254031
10.317452
10.357458
10.296091
10.17197
10.073965
10.020495
10.001539
9.9998659
9.9998576
9.9998141
9.9997974
9.9997957
9.9997956
9.999795
9.9997937
9.9997917
9.9997893
9.9997868
9.9997846
9.9997826
9.999781
9.9997797
9.9997787
9.9997779
9.9997772
9.9997767
9.9997763
9.999776
9.9997758
9.9997756
9.9997754
9.9997753
9.9997752
9.9997751
9.9997751
9.999775
9.999775
9.9997749
9.9997749
9.9997749
9.9997749
9.9997748
9.9997748
9.9997748
9.9997748
9.9997748
9.9997748
9.9997748
9.9997748
9.9997748
9.9997748
9.9997748
9.9997748
9.9997748
9.9997748
9.9997748
9.9997748
9.9997748
9.9997748
9.9997748
9.9997748
9.9997748
9.9997748
9.9997748
9.9997748
9.9997748
9.9997748
9.9997754
1314.1307
1298.0821
9.2212563
11.111618
10.863587
10.017711
11.000309
10.263142
10.419547
10.254658
10.304073
10.284473
10.344831
10.369742
10.29817
10.166979
10.068984
10.01806
10.001009
9.9998744
9.9998538
9.9998116
9.999797
9.9997957
9.9997955
9.9997949
9.9997935
9.9997915
9.9997889
9.9997864
9.9997842
9.9997823
9.9997808
9.9997796
9.9997786
9.9997778
9.9997772
9.9997767
9.9997763
9.999776
9.9997758
9.9997756
9.9997754
9.9997753
9.9997752
9.9997751
9.999775
9.999775
9.999775
9.9997749
9.9997749
9.9997749
9.9997749
9.9997748
9.9997748
9.9997748
9.9997748
9.9997748
9.9997748
9.9997748
9.9997748
9.9997748
9.9997748
9.9997748
9.9997748
9.9997748
9.9997748
9.9997748
9.9997748
9.9997748
9.9997748
9.9997748
9.9997748
9.9997748
9.9997748
9.9997748
9.9997748
9.9997748
9.9997748
9.9997755
1254.5814
1501.0842
7.9446156
10.946739
11.055111
10.13912
11.209435
10.315215
10.45912
10.270942
10.337439
10.309429
10.36447
10.375818
10.292412
10.156988
10.061709
10.014973
10.000455
9.9998809
9.9998483
9.9998086
9.9997966
9.9997957
9.9997955
9.9997948
9.9997933
9.9997912
9.9997887
9.9997863
9.9997841
9.9997823
9.9997808
9.9997795
9.9997785
9.9997778
9.9997772
9.9997767
9.9997763
9.999776
9.9997758
9.9997755
9.9997754
9.9997753
9.9997752
9.9997751
9.999775
9.999775
9.999775
9.9997749
9.9997749
9.9997749
9.9997749
9.9997748
9.9997748
9.9997748
9.9997748
9.9997748
9.9997748
9.9997748
9.9997748
9.9997748
9.9997748
9.9997748
9.9997748
9.9997748
9.9997748
9.9997748
9.9997748
9.9997748
9.9997748
9.9997748
9.9997748
9.9997748
9.9997748
9.9997748
9.9997748
9.9997748
9.9997748
9.9997755
1197.3887
1359.095
6.806703
10.342704
11.664306
9.8544343
11.156518
10.350874
10.432961
10.27733
10.361602
10.327837
10.377121
10.376189
10.281972
10.145331
10.05424
10.012127
10.000119
9.9998833
9.9998426
9.999806
9.9997963
9.9997957
9.9997955
9.9997947
9.9997931
9.999791
9.9997884
9.9997861
9.9997839
9.9997821
9.9997806
9.9997794
9.9997785
9.9997777
9.9997771
9.9997767
9.9997763
9.999776
9.9997757
9.9997756
9.9997754
9.9997753
9.9997752
9.9997751
9.9997751
9.999775
9.999775
9.9997749
9.9997749
9.9997749
9.9997749
9.9997749
9.9997748
9.9997748
9.9997748
9.9997748
9.9997748
9.9997748
9.9997748
9.9997748
9.9997748
9.9997748
9.9997748
9.9997748
9.9997748
9.9997748
9.9997748
9.9997748
9.9997748
9.9997748
9.9997748
9.9997748
9.9997748
9.9997748
9.9997748
9.9997748
9.9997748
9.9997756
1172.8767
701.7187
9.2169405
11.15416
11.880792
10.096971
10.973285
10.451073
10.395011
10.274008
10.353391
10.333618
10.386926
10.372573
10.272839
10.136163
10.048971
10.010295
9.9999805
9.9998826
9.9998382
9.9998043
9.9997961
9.9997957
9.9997955
9.9997946
9.9997931
9.9997909
9.9997885
9.9997862
9.999784
9.9997822
9.9997807
9.9997795
9.9997785
9.9997778
9.9997772
9.9997767
9.9997763
9.999776
9.9997757
9.9997756
9.9997754
9.9997753
9.9997752
9.9997751
9.9997751
9.999775
9.999775
9.9997749
9.9997749
9.9997749
9.9997749
9.9997749
9.9997748
9.9997748
9.9997748
9.9997748
9.9997748
9.9997748
9.9997748
9.9997748
9.9997748
9.9997748
9.9997748
9.9997748
9.9997748
9.9997748
9.9997748
9.9997748
9.9997748
9.9997748
9.9997748
9.9997748
9.9997748
9.9997748
9.9997748
9.9997748
9.9997748
9.9997756
1157.7401
418.91191
10.255716
11.469359
11.351328
10.928818
10.765114
10.463327
10.354968
10.268386
10.371036
10.320001
10.399446
10.369997
10.271797
10.133792
10.048032
10.010053
9.9999706
9.9998815
9.9998374
9.9998041
9.9997961
9.9997957
9.9997954
9.9997946
9.9997931
9.999791
9.9997886
9.9997862
9.9997841
9.9997823
9.9997808
9.9997796
9.9997786
9.9997778
9.9997772
9.9997767
9.9997763
9.999776
9.9997758
9.9997756
9.9997754
9.9997753
9.9997752
9.9997751
9.9997751
9.999775
9.999775
9.9997749
9.9997749
9.9997749
9.9997749
9.9997749
9.9997748
9.9997748
9.9997748
9.9997748
9.9997748
9.9997748
9.9997748
9.9997748
9.9997748
9.9997748
9.9997748
9.9997748
9.9997748
9.9997748
9.9997748
9.9997748
9.9997748
9.9997748
9.9997748
9.9997748
9.9997748
9.9997748
9.9997748
9.9997748
9.9997748
9.9997756
1132.7633
391.95512
9.3453509
11.048248
11.041957
10.366611
10.506816
10.299925
10.355655
10.260544
10.382676
10.288138
10.403622
10.372026
10.282834
10.14255
10.054211
10.012508
10.000213
9.9998724
9.9998418
9.9998068
9.9997965
9.9997957
9.9997955
9.9997948
9.9997934
9.9997914
9.9997891
9.9997867
9.9997846
9.9997827
9.9997811
9.9997798
9.9997788
9.999778
9.9997773
9.9997768
9.9997764
9.9997761
9.9997758
9.9997756
9.9997755
9.9997753
9.9997752
9.9997751
9.9997751
9.999775
9.999775
9.9997749
9.9997749
9.9997749
9.9997749
9.9997749
9.9997748
9.9997748
9.9997748
9.9997748
9.9997748
9.9997748
9.9997748
9.9997748
9.9997748
9.9997748
9.9997748
9.9997748
9.9997748
9.9997748
9.9997748
9.9997748
9.9997748
9.9997748
9.9997748
9.9997748
9.9997748
9.9997748
9.9997748
9.9997748
9.9997748
9.9997756
1048.2353
10.574507
10.67475
9.9593291
10.01136
10.159083
10.004344
10.053675
10.016155
10.056278
10.117008
10.155552
10.138547
10.077472
10.0295
10.006258
10.00011
9.9997699
9.9997781
9.9997913
9.9997958
9.999796
9.9997956
9.9997946
9.9997931
9.999791
9.9997885
9.9997861
9.999784
9.9997821
9.9997806
9.9997794
9.9997784
9.9997777
9.9997771
9.9997766
9.9997762
9.9997759
9.9997757
9.9997755
9.9997754
9.9997753
9.9997752
9.9997751
9.999775
9.999775
9.9997749
9.9997749
9.9997749
9.9997749
9.9997749
9.9997748
9.9997748
9.9997748
9.9997748
9.9997748
9.9997748
9.9997748
9.9997748
9.9997748
9.9997748
9.9997748
9.9997748
9.9997748
9.9997748
9.9997748
9.9997748
9.9997748
9.9997748
9.9997748
9.9997748
9.9997748
9.9997748
9.9997748
9.9997748
9.9997748
9.9997748
9.9997748
9.9997748
9.9997748
1051.2609
9.7300947
10.619762
9.9144592
10.025599
10.0384
10.02169
10.025058
10.032082
10.049944
10.114922
10.156327
10.141715
10.081625
10.033552
10.007992
10.000262
9.9997726
9.9997753
9.9997898
9.9997956
9.999796
9.9997956
9.9997946
9.9997931
9.999791
9.9997886
9.9997862
9.999784
9.9997821
9.9997806
9.9997794
9.9997784
9.9997777
9.9997771
9.9997766
9.9997762
9.9997759
9.9997757
9.9997755
9.9997754
9.9997753
9.9997752
9.9997751
9.999775
9.999775
9.9997749
9.9997749
9.9997749
9.9997749
9.9997749
9.9997748
9.9997748
9.9997748
9.9997748
9.9997748
9.9997748
9.9997748
9.9997748
9.9997748
9.9997748
9.9997748
9.9997748
9.9997748
9.9997748
9.9997748
9.9997748
9.9997748
9.9997748
9.9997748
9.9997748
9.9997748
9.9997748
9.9997748
9.9997748
9.9997748
9.9997748
9.9997748
9.9997748
9.9997748
1054.1523
9.6739969
10.597013
9.9657607
9.9804125
10.110746
9.9939703
10.031153
10.02221
10.048103
10.117291
10.159202
10.141044
10.080619
10.033172
10.007941
10.000274
9.999775
9.9997757
9.9997897
9.9997955
9.999796
9.9997956
9.9997947
9.999793
9.999791
9.9997886
9.9997862
9.999784
9.9997822
9.9997806
9.9997794
9.9997785
9.9997777
9.9997771
9.9997766
9.9997762
9.9997759
9.9997757
9.9997755
9.9997754
9.9997753
9.9997752
9.9997751
9.999775
9.999775
9.999775
9.9997749
9.9997749
9.9997749
9.9997749
9.9997748
9.9997748
9.9997748
9.9997748
9.9997748
9.9997748
9.9997748
9.9997748
9.9997748
9.9997748
9.9997748
9.9997748
9.9997748
9.9997748
9.9997748
9.9997748
9.9997748
9.9997748
9.9997748
9.9997748
9.9997748
9.9997748
9.9997748
9.9997748
9.9997748
9.9997748
9.9997748
9.9997748
9.9997748
1054.8082
9.6781191
10.583805
9.9324863
10.017271
10.056133
10.005248
10.019865
10.028714
10.054509
10.116941
10.155094
10.137499
10.078953
10.032558
10.007798
10.00027
9.9997762
9.9997762
9.9997898
9.9997955
9.999796
9.9997956
9.9997947
9.9997931
9.9997909
9.9997886
9.9997862
9.999784
9.9997822
9.9997807
9.9997794
9.9997785
9.9997777
9.9997771
9.9997766
9.9997762
9.999776
9.9997757
9.9997755
9.9997754
9.9997753
9.9997752
9.9997751
9.999775
9.999775
9.999775
9.9997749
9.9997749
9.9997749
9.9997749
9.9997748
9.9997748
9.9997748
9.9997748
9.9997748
9.9997748
9.9997748
9.9997748
9.9997748
9.9997748
9.9997748
9.9997748
9.9997748
9.9997748
9.9997748
9.9997748
9.9997748
9.9997748
9.9997748
9.9997748
9.9997748
9.9997748
9.9997748
9.9997748
9.9997748
9.9997748
9.9997748
9.9997748
9.9997748
1056.0184
9.6874795
10.56745
9.9371966
10.015244
10.057802
10.004668
10.020518
10.027862
10.052112
10.113268
10.150583
10.134056
10.077269
10.031971
10.007671
10.000268
9.9997774
9.9997766
9.9997899
9.9997955
9.999796
9.9997956
9.9997947
9.9997931
9.9997909
9.9997887
9.9997863
9.9997841
9.9997822
9.9997807
9.9997795
9.9997785
9.9997777
9.9997771
9.9997766
9.9997763
9.999776
9.9997757
9.9997755
9.9997754
9.9997753
9.9997752
9.9997751
9.999775
9.999775
9.999775
9.9997749
9.9997749
9.9997749
9.9997749
9.9997748
9.9997748
9.9997748
9.9997748
9.9997748
9.9997748
9.9997748
9.9997748
9.9997748
9.9997748
9.9997748
9.9997748
9.9997748
9.9997748
9.9997748
9.9997748
9.9997748
9.9997748
9.9997748
9.9997748
9.9997748
9.9997748
9.9997748
9.9997748
9.9997748
9.9997748
9.9997748
9.9997748
9.9997748
1057.1737
9.700645
10.55324
9.9398162
10.017065
10.056269
10.004889
10.019854
10.027126
10.049976
10.109458
10.146257
10.130777
10.07566
10.031413
10.007551
10.000266
9.9997786
9.999777
9.99979
9.9997955
9.999796
9.9997956
9.9997947
9.9997932
9.999791
9.9997885
9.9997863
9.9997841
9.9997822
9.9997807
9.9997795
9.9997785
9.9997777
9.9997771
9.9997766
9.9997763
9.999776
9.9997757
9.9997755
9.9997754
9.9997753
9.9997752
9.9997751
9.999775
9.999775
9.999775
9.9997749
9.9997749
9.9997749
9.9997749
9.9997748
9.9997748
9.9997748
9.9997748
9.9997748
9.9997748
9.9997748
9.9997748
9.9997748
9.9997748
9.9997748
9.9997748
9.9997748
9.9997748
9.9997748
9.9997748
9.9997748
9.9997748
9.9997748
9.9997748
9.9997748
9.9997748
9.9997748
9.9997748
9.9997748
9.9997748
9.9997748
9.9997748
9.9997748
1058.3436
9.7130366
10.538867
9.9426012
10.016372
10.055081
10.004523
10.019515
10.026383
10.048068
10.105827
10.142082
10.127573
10.074074
10.030856
10.007428
10.000264
9.9997797
9.9997774
9.99979
9.9997955
9.999796
9.9997956
9.9997948
9.9997932
9.999791
9.9997886
9.9997861
9.9997841
9.9997823
9.9997807
9.9997795
9.9997785
9.9997777
9.9997771
9.9997766
9.9997763
9.999776
9.9997757
9.9997755
9.9997754
9.9997753
9.9997752
9.9997751
9.999775
9.999775
9.999775
9.9997749
9.9997749
9.9997749
9.9997749
9.9997748
9.9997748
9.9997748
9.9997748