/*--------------------------------*- C++ -*----------------------------------*\
| =========                 |                                                 |
| \\      /  F ield         | OpenFOAM: The Open Source CFD Toolbox           |
|  \\    /   O peration     | Version:  2406                                  |
|   \\  /    A nd           | Website:  www.openfoam.com                      |
|    \\/     M anipulation  |                                                 |
\*---------------------------------------------------------------------------*/
FoamFile
{
    version     2.0;
    format      ascii;
    arch        "LSB;label=32;scalar=64";
    class       volScalarField;
    location    "0.00011";
    object      p;
}
// * * * * * * * * * * * * * * * * * * * * * * * * * * * * * * * * * * * * * //

dimensions      [1 -1 -2 0 0 0 0];

internalField   nonuniform List<scalar> 
16000
(
100081.95
99991.868
100109.32
99994.964
100077.6
100025.93
100061.67
100035.45
100046.07
100038.11
100051.85
100049.56
100042.71
100023.8
100010.23
100002.03
100000.01
99999.853
99999.952
99999.993
100000
100000
100000
100000
100000
100000
100000
100000
100000
100000
100000
100000
100000
100000
100000
100000
100000
100000
100000
100000
100000
100000
100000
100000
100000
100000
100000
100000
100000
100000
100000
100000
100000
100000
100000
100000
100000
100000
100000
100000
100000
100000
100000
100000
100000
100000
100000
100000
100000
100000
100000
100000
100000
100000
100000
100000
100000
100000
100000
100000
100145.16
100124.37
100180.29
100118.17
100151.49
100126.97
100149.98
100134.13
100135.52
100131.65
100156.16
100159.35
100137.92
100082.75
100037.75
100010.89
100002.08
99999.984
99999.901
99999.958
99999.995
100000
100000
100000
100000
100000
100000
100000
100000
100000
100000
100000
100000
100000
100000
100000
100000
100000
100000
100000
100000
100000
100000
100000
100000
100000
100000
100000
100000
100000
100000
100000
100000
100000
100000
100000
100000
100000
100000
100000
100000
100000
100000
100000
100000
100000
100000
100000
100000
100000
100000
100000
100000
100000
100000
100000
100000
100000
100000
100000
100222.09
100256.77
100272.72
100243.54
100225.34
100247.81
100245.46
100244.4
100225.29
100230.05
100261.03
100276.39
100243.93
100155.09
100076.03
100024.81
100005.54
100000.36
99999.853
99999.913
99999.985
99999.999
100000
100000
100000
100000
100000
100000
100000
100000
100000
100000
100000
100000
100000
100000
100000
100000
100000
100000
100000
100000
100000
100000
100000
100000
100000
100000
100000
100000
100000
100000
100000
100000
100000
100000
100000
100000
100000
100000
100000
100000
100000
100000
100000
100000
100000
100000
100000
100000
100000
100000
100000
100000
100000
100000
100000
100000
100000
100000
100302.72
100397.96
100335.34
100384.44
100297.58
100381.33
100341.26
100360.91
100317.25
100330.77
100362.18
100398.36
100361.05
100241.56
100124.68
100043.44
100010.6
100000.98
99999.801
99999.858
99999.97
99999.998
100000
100000
100000
100000
100000
100000
100000
100000
100000
100000
100000
100000
100000
100000
100000
100000
100000
100000
100000
100000
100000
100000
100000
100000
100000
100000
100000
100000
100000
100000
100000
100000
100000
100000
100000
100000
100000
100000
100000
100000
100000
100000
100000
100000
100000
100000
100000
100000
100000
100000
100000
100000
100000
100000
100000
100000
100000
100000
100389.84
100553.56
100388.77
100528.9
100354.82
100533.9
100431.75
100480.47
100413.31
100433.78
100462.04
100525.94
100487.14
100340.48
100184.12
100067.75
100017.75
100002.05
99999.773
99999.793
99999.947
99999.995
100000
100000
100000
100000
100000
100000
100000
100000
100000
100000
100000
100000
100000
100000
100000
100000
100000
100000
100000
100000
100000
100000
100000
100000
100000
100000
100000
100000
100000
100000
100000
100000
100000
100000
100000
100000
100000
100000
100000
100000
100000
100000
100000
100000
100000
100000
100000
100000
100000
100000
100000
100000
100000
100000
100000
100000
100000
100000
100485.2
100726.32
100434.29
100694.01
100424.27
100682.31
100517.87
100609.43
100515.39
100541.12
100561.32
100657.38
100621.56
100451.19
100254.81
100098.4
100027.41
100003.69
99999.798
99999.717
99999.917
99999.991
100000
100000
100000
100000
100000
100000
100000
100000
100000
100000
100000
100000
100000
100000
100000
100000
100000
100000
100000
100000
100000
100000
100000
100000
100000
100000
100000
100000
100000
100000
100000
100000
100000
100000
100000
100000
100000
100000
100000
100000
100000
100000
100000
100000
100000
100000
100000
100000
100000
100000
100000
100000
100000
100000
100000
100000
100000
100000
100584.13
100919.88
100469.18
100887.65
100495.01
100834.48
100601.39
100749.09
100628.57
100652.41
100662.12
100792.62
100763.51
100573.08
100336.89
100135.93
100039.9
100006.05
99999.908
99999.631
99999.877
99999.985
100000
100000
100000
100000
100000
100000
100000
100000
100000
100000
100000
100000
100000
100000
100000
100000
100000
100000
100000
100000
100000
100000
100000
100000
100000
100000
100000
100000
100000
100000
100000
100000
100000
100000
100000
100000
100000
100000
100000
100000
100000
100000
100000
100000
100000
100000
100000
100000
100000
100000
100000
100000
100000
100000
100000
100000
100000
100000
100686.35
101145.38
100487.79
101112.5
100562.99
100996.4
100684.21
100902.87
100757.71
100762.56
100767.97
100930.94
100912.73
100705.38
100430.4
100180.79
100055.54
100009.27
100000.14
99999.535
99999.827
99999.976
100000
100000
100000
100000
100000
100000
100000
100000
100000
100000
100000
100000
100000
100000
100000
100000
100000
100000
100000
100000
100000
100000
100000
100000
100000
100000
100000
100000
100000
100000
100000
100000
100000
100000
100000
100000
100000
100000
100000
100000
100000
100000
100000
100000
100000
100000
100000
100000
100000
100000
100000
100000
100000
100000
100000
100000
100000
100000
100794.47
101403.61
100491.73
101368.76
100640.04
101171.17
100760.34
101075.68
100893.7
100871.15
100881.39
101077.47
101069.32
100850.32
100535.47
100233.35
100074.64
100013.48
100000.52
99999.432
99999.769
99999.964
100000
100000
100000
100000
100000
100000
100000
100000
100000
100000
100000
100000
100000
100000
100000
100000
100000
100000
100000
100000
100000
100000
100000
100000
100000
100000
100000
100000
100000
100000
100000
100000
100000
100000
100000
100000
100000
100000
100000
100000
100000
100000
100000
100000
100000
100000
100000
100000
100000
100000
100000
100000
100000
100000
100000
100000
100000
100000
100905.21
101703.35
100482.51
101665.55
100717.96
101375.5
100826.55
101266.44
101032.75
100991.73
100994.41
101235.93
101231.41
101007.44
100652.63
100294.07
100097.55
100018.84
100001.09
99999.324
99999.703
99999.949
100000
100000
100000
100000
100000
100000
100000
100000
100000
100000
100000
100000
100000
100000
100000
100000
100000
100000
100000
100000
100000
100000
100000
100000
100000
100000
100000
100000
100000
100000
100000
100000
100000
100000
100000
100000
100000
100000
100000
100000
100000
100000
100000
100000
100000
100000
100000
100000
100000
100000
100000
100000
100000
100000
100000
100000
100000
100000
101007.93
102071.57
100448.87
102028
100779.38
101609.53
100893.32
101474.93
101170.67
101127.74
101110.53
101396.85
101409.23
101177.46
100782.27
100363.57
100124.65
100025.49
100001.91
99999.217
99999.627
99999.929
99999.999
100000
100000
100000
100000
100000
100000
100000
100000
100000
100000
100000
100000
100000
100000
100000
100000
100000
100000
100000
100000
100000
100000
100000
100000
100000
100000
100000
100000
100000
100000
100000
100000
100000
100000
100000
100000
100000
100000
100000
100000
100000
100000
100000
100000
100000
100000
100000
100000
100000
100000
100000
100000
100000
100000
100000
100000
100000
101096.27
102549.98
100372.83
102473.66
100813.08
101879.43
100966.21
101703.48
101316.03
101282.87
101229.95
101562.82
101603.66
101359.92
100925.66
100442.7
100156.41
100033.63
100003
99999.116
99999.541
99999.905
99999.997
100000
100000
100000
100000
100000
100000
100000
100000
100000
100000
100000
100000
100000
100000
100000
100000
100000
100000
100000
100000
100000
100000
100000
100000
100000
100000
100000
100000
100000
100000
100000
100000
100000
100000
100000
100000
100000
100000
100000
100000
100000
100000
100000
100000
100000
100000
100000
100000
100000
100000
100000
100000
100000
100000
100000
100000
100000
101175.76
103169.83
100260.29
103013.37
100829.72
102189.38
101042.7
101954.09
101470.91
101453.77
101357.22
101731.8
101813.24
101558.76
101084.03
100532.55
100193.42
100043.47
100004.42
99999.027
99999.444
99999.875
99999.995
100000
100000
100000
100000
100000
100000
100000
100000
100000
100000
100000
100000
100000
100000
100000
100000
100000
100000
100000
100000
100000
100000
100000
100000
100000
100000
100000
100000
100000
100000
100000
100000
100000
100000
100000
100000
100000
100000
100000
100000
100000
100000
100000
100000
100000
100000
100000
100000
100000
100000
100000
100000
100000
100000
100000
100000
100000
101250.33
103957.1
100107.43
103655.54
100840.03
102544.68
101124.98
102230.09
101638.92
101642.88
101495.53
101906.31
102036.45
101775.38
101259.07
100634.33
100236.36
100055.28
100006.25
99998.956
99999.337
99999.839
99999.992
100000
100000
100000
100000
100000
100000
100000
100000
100000
100000
100000
100000
100000
100000
100000
100000
100000
100000
100000
100000
100000
100000
100000
100000
100000
100000
100000
100000
100000
100000
100000
100000
100000
100000
100000
100000
100000
100000
100000
100000
100000
100000
100000
100000
100000
100000
100000
100000
100000
100000
100000
100000
100000
100000
100000
100000
100000
101322.44
105008.47
99893.98
104455.94
100840.26
102966.09
101216.8
102538.7
101822.48
101857.51
101650.22
102094
102271.51
102010.92
101452.41
100749.29
100285.96
100069.32
100008.54
99998.91
99999.218
99999.797
99999.987
100000
100000
100000
100000
100000
100000
100000
100000
100000
100000
100000
100000
100000
100000
100000
100000
100000
100000
100000
100000
100000
100000
100000
100000
100000
100000
100000
100000
100000
100000
100000
100000
100000
100000
100000
100000
100000
100000
100000
100000
100000
100000
100000
100000
100000
100000
100000
100000
100000
100000
100000
100000
100000
100000
100000
100000
100000
101381.78
106483.65
99596.821
105487.81
100824.85
103476.86
101320.16
102889.09
102021.6
102108.1
101827.62
102301.18
102523.57
102269.12
101666.27
100878.84
100342.88
100085.86
100011.35
99998.897
99999.088
99999.747
99999.982
100000
100000
100000
100000
100000
100000
100000
100000
100000
100000
100000
100000
100000
100000
100000
100000
100000
100000
100000
100000
100000
100000
100000
100000
100000
100000
100000
100000
100000
100000
100000
100000
100000
100000
100000
100000
100000
100000
100000
100000
100000
100000
100000
100000
100000
100000
100000
100000
100000
100000
100000
100000
100000
100000
100000
100000
100000
101423.58
108528.7
99170.129
106859.21
100801.89
104103.87
101445.19
103289.22
102243.56
102394.24
102029.22
102532.26
102799.6
102558.13
101904.41
101024.71
100407.68
100105.03
100014.72
99998.922
99998.945
99999.69
99999.975
100000
100000
100000
100000
100000
100000
100000
100000
100000
100000
100000
100000
100000
100000
100000
100000
100000
100000
100000
100000
100000
100000
100000
100000
100000
100000
100000
100000
100000
100000
100000
100000
100000
100000
100000
100000
100000
100000
100000
100000
100000
100000
100000
100000
100000
100000
100000
100000
100000
100000
100000
100000
100000
100000
100000
100000
100000
101507.59
111413.41
98610.297
108710.12
100760.8
104884
101580.67
103739.81
102482.27
102709.13
102245.92
102782.95
103101.48
102882
102169.77
101187.81
100480.39
100126.73
100018.6
99998.977
99998.789
99999.627
99999.967
100000
100000
100000
100000
100000
100000
100000
100000
100000
100000
100000
100000
100000
100000
100000
100000
100000
100000
100000
100000
100000
100000
100000
100000
100000
100000
100000
100000
100000
100000
100000
100000
100000
100000
100000
100000
100000
100000
100000
100000
100000
100000
100000
100000
100000
100000
100000
100000
100000
100000
100000
100000
100000
100000
100000
100000
100000
101521.23
115442.26
97967.87
111129.77
100692.58
105847.44
101743.44
104260.94
102737.74
103048.53
102470.85
103045.24
103420.98
103231.27
102456.4
101364.68
100559.18
100150.24
100022.8
99999.046
99998.623
99999.561
99999.959
100000.01
100000
100000
100000
100000
100000
100000
100000
100000
100000
100000
100000
100000
100000
100000
100000
100000
100000
100000
100000
100000
100000
100000
100000
100000
100000
100000
100000
100000
100000
100000
100000
100000
100000
100000
100000
100000
100000
100000
100000
100000
100000
100000
100000
100000
100000
100000
100000
100000
100000
100000
100000
100000
100000
100000
100000
100000
101249.08
122681.75
96932.646
114806.77
100454.52
107229.58
101871.79
104832.32
102962.52
103389.82
102707.39
103327.7
103746.39
103580.88
102744.89
101543.22
100638.14
100173.68
100026.93
99999.106
99998.456
99999.498
99999.952
100000.01
100000
100000
100000
100000
100000
100000
100000
100000
100000
100000
100000
100000
100000
100000
100000
100000
100000
100000
100000
100000
100000
100000
100000
100000
100000
100000
100000
100000
100000
100000
100000
100000
100000
100000
100000
100000
100000
100000
100000
100000
100000
100000
100000
100000
100000
100000
100000
100000
100000
100000
100000
100000
100000
100000
100000
100000
100239.36
136446.75
94977.668
120240.86
99959.933
108846.96
101884.66
105377.67
103146.95
103749.89
102966.68
103650.5
104058.63
103897.21
103008.54
101702.58
100707.23
100193.51
100030.29
99999.108
99998.306
99999.447
99999.946
100000.01
100000
100000
100000
100000
100000
100000
100000
100000
100000
100000
100000
100000
100000
100000
100000
100000
100000
100000
100000
100000
100000
100000
100000
100000
100000
100000
100000
100000
100000
100000
100000
100000
100000
100000
100000
100000
100000
100000
100000
100000
100000
100000
100000
100000
100000
100000
100000
100000
100000
100000
100000
100000
100000
100000
100000
100000
97929.165
158800.14
92253.597
126879.56
99178.036
110500.48
101826.19
105942.59
103279.39
104065.52
103201
103964.84
104317.92
104167.36
103221.52
101821.12
100754.08
100205.26
100031.85
99998.977
99998.192
99999.419
99999.945
100000.01
100000
100000
100000
100000
100000
100000
100000
100000
100000
100000
100000
100000
100000
100000
100000
100000
100000
100000
100000
100000
100000
100000
100000
100000
100000
100000
100000
100000
100000
100000
100000
100000
100000
100000
100000
100000
100000
100000
100000
100000
100000
100000
100000
100000
100000
100000
100000
100000
100000
100000
100000
100000
100000
100000
100000
100000
95436.582
189551.28
88682.204
133881.08
98004.432
112109.65
101629.47
106513.35
103254.57
104261.29
103348.95
104192.38
104531.82
104387.28
103366
101877.64
100767.24
100204.98
100030.81
99998.672
99998.139
99999.424
99999.948
100000.01
100000
100000
100000
100000
100000
100000
100000
100000
100000
100000
100000
100000
100000
100000
100000
100000
100000
100000
100000
100000
100000
100000
100000
100000
100000
100000
100000
100000
100000
100000
100000
100000
100000
100000
100000
100000
100000
100000
100000
100000
100000
100000
100000
100000
100000
100000
100000
100000
100000
100000
100000
100000
100000
100000
100000
100000
93129.69
189801.19
85647.485
139713.29
96710.727
113401.55
101284.32
106982.69
103046.05
104355.84
103356.93
104334.62
104662.63
104549.28
103423.31
101859.22
100741.33
100191.5
100027.11
99998.243
99998.161
99999.466
99999.957
100000.01
100000
100000
100000
100000
100000
100000
100000
100000
100000
100000
100000
100000
100000
100000
100000
100000
100000
100000
100000
100000
100000
100000
100000
100000
100000
100000
100000
100000
100000
100000
100000
100000
100000
100000
100000
100000
100000
100000
100000
100000
100000
100000
100000
100000
100000
100000
100000
100000
100000
100000
100000
100000
100000
100000
100000
100000
90537.636
166286.69
81892.217
145778.88
95160.183
114760.49
100809.39
107347.57
102756.96
104310.99
103287.82
104398.79
104746.33
104602.32
103378.63
101771.27
100682.09
100167.73
100021.63
99997.809
99998.262
99999.538
99999.969
100000.01
100000
100000
100000
100000
100000
100000
100000
100000
100000
100000
100000
100000
100000
100000
100000
100000
100000
100000
100000
100000
100000
100000
100000
100000
100000
100000
100000
100000
100000
100000
100000
100000
100000
100000
100000
100000
100000
100000
100000
100000
100000
100000
100000
100000
100000
100000
100000
100000
100000
100000
100000
100000
100000
100000
100000
100000
86499.623
132808.49
76668.713
149162.78
93536.656
115509.8
100044.87
107459.35
102492.51
104154.6
103199.6
104445.48
104787.61
104566.19
103250.48
101635.16
100604.13
100139.67
100015.79
99997.502
99998.418
99999.624
99999.981
100000.01
100000
100000
100000
100000
100000
100000
100000
100000
100000
100000
100000
100000
100000
100000
100000
100000
100000
100000
100000
100000
100000
100000
100000
100000
100000
100000
100000
100000
100000
100000
100000
100000
100000
100000
100000
100000
100000
100000
100000
100000
100000
100000
100000
100000
100000
100000
100000
100000
100000
100000
100000
100000
100000
100000
100000
100000
87658.411
121544.69
73754.296
145532.62
92553.997
114701.46
99404.123
106864.6
102550.08
103921.09
103137.1
104477.43
104806.41
104473.01
103084.98
101489.92
100528.23
100114.59
100011.03
99997.385
99998.586
99999.701
99999.99
100000.01
100000
100000
100000
100000
100000
100000
100000
100000
100000
100000
100000
100000
100000
100000
100000
100000
100000
100000
100000
100000
100000
100000
100000
100000
100000
100000
100000
100000
100000
100000
100000
100000
100000
100000
100000
100000
100000
100000
100000
100000
100000
100000
100000
100000
100000
100000
100000
100000
100000
100000
100000
100000
100000
100000
100000
100000
91906.131
159974.98
75472.451
135569.65
93713.68
112276.01
99574.876
105699.62
102645.84
103678.56
103122.87
104487.07
104836.19
104367.37
102950.71
101381.25
100476.19
100098.63
100008.26
99997.39
99998.715
99999.75
99999.995
100000.01
100000
100000
100000
100000
100000
100000
100000
100000
100000
100000
100000
100000
100000
100000
100000
100000
100000
100000
100000
100000
100000
100000
100000
100000
100000
100000
100000
100000
100000
100000
100000
100000
100000
100000
100000
100000
100000
100000
100000
100000
100000
100000
100000
100000
100000
100000
100000
100000
100000
100000
100000
100000
100000
100000
100000
100000
96740.353
144964.43
87077.996
121800.06
96738.897
109318.14
100523.38
104855.83
102763.75
103473.04
103108.75
104471.68
104882.52
104301.37
102913.22
101352.19
100466.68
100096.5
100008.06
99997.423
99998.735
99999.755
99999.996
100000.01
100000
100000
100000
100000
100000
100000
100000
100000
100000
100000
100000
100000
100000
100000
100000
100000
100000
100000
100000
100000
100000
100000
100000
100000
100000
100000
100000
100000
100000
100000
100000
100000
100000
100000
100000
100000
100000
100000
100000
100000
100000
100000
100000
100000
100000
100000
100000
100000
100000
100000
100000
100000
100000
100000
100000
100000
97752.722
142588.52
90161.05
118642.29
98165.543
107786.85
101295.02
104490.39
102857.96
103364.03
103066.69
104396.22
104895.87
104342.56
103037.13
101460.3
100528.23
100118.89
100012.88
99997.727
99998.595
99999.675
99999.984
100000.01
100000
100000
100000
100000
100000
100000
100000
100000
100000
100000
100000
100000
100000
100000
100000
100000
100000
100000
100000
100000
100000
100000
100000
100000
100000
100000
100000
100000
100000
100000
100000
100000
100000
100000
100000
100000
100000
100000
100000
100000
100000
100000
100000
100000
100000
100000
100000
100000
100000
100000
100000
100000
100000
100000
100000
100000
99556.263
98209.381
99817.875
98375.472
99693.723
98508.728
99124.254
98983.601
99205.21
98879.677
98698.139
98758.67
99079.487
99520.797
99817.722
99957.01
99994.588
100000.79
100000.49
100000.13
100000
99999.998
99999.999
100000
100000
100000
100000
100000
100000
100000
100000
100000
100000
100000
100000
100000
100000
100000
100000
100000
100000
100000
100000
100000
100000
100000
100000
100000
100000
100000
100000
100000
100000
100000
100000
100000
100000
100000
100000
100000
100000
100000
100000
100000
100000
100000
100000
100000
100000
100000
100000
100000
100000
100000
100000
100000
100000
100000
100000
100000
99598.593
98220.415
99811.287
98354.331
99685.242
98453.495
99085.882
98942.743
99104.685
98757.574
98605.65
98673.939
99011.763
99476.539
99789.497
99947.376
99992.585
100000.78
100000.58
100000.17
100000.01
99999.998
99999.999
100000
100000
100000
100000
100000
100000
100000
100000
100000
100000
100000
100000
100000
100000
100000
100000
100000
100000
100000
100000
100000
100000
100000
100000
100000
100000
100000
100000
100000
100000
100000
100000
100000
100000
100000
100000
100000
100000
100000
100000
100000
100000
100000
100000
100000
100000
100000
100000
100000
100000
100000
100000
100000
100000
100000
100000
100000
99330.122
98097.019
99603.665
98242.086
99514.54
98332.04
98939.205
98801.253
99007.407
98662.884
98564.17
98658.663
99017.12
99482.705
99791.55
99947.353
99992.387
100000.71
100000.57
100000.18
100000.01
99999.998
99999.999
100000
100000
100000
100000
100000
100000
100000
100000
100000
100000
100000
100000
100000
100000
100000
100000
100000
100000
100000
100000
100000
100000
100000
100000
100000
100000
100000
100000
100000
100000
100000
100000
100000
100000
100000
100000
100000
100000
100000
100000
100000
100000
100000
100000
100000
100000
100000
100000
100000
100000
100000
100000
100000
100000
100000
100000
100000
99370.501
98127.638
99586.616
98257.48
99516.344
98367.981
98952.136
98814.233
99025.457
98698.086
98605.16
98690.134
99040.18
99492.733
99795.059
99947.964
99992.408
100000.67
100000.56
100000.17
100000.01
99999.998
99999.999
100000
100000
100000
100000
100000
100000
100000
100000
100000
100000
100000
100000
100000
100000
100000
100000
100000
100000
100000
100000
100000
100000
100000
100000
100000
100000
100000
100000
100000
100000
100000
100000
100000
100000
100000
100000
100000
100000
100000
100000
100000
100000
100000
100000
100000
100000
100000
100000
100000
100000
100000
100000
100000
100000
100000
100000
100000
99380.059
98171.549
99585.224
98300.41
99519.882
98407.816
98975.964
98842.189
99051.052
98736.659
98646.122
98724.505
99063.098
99502.893
99798.391
99948.519
99992.409
100000.64
100000.54
100000.17
100000.01
99999.998
99999.999
100000
100000
100000
100000
100000
100000
100000
100000
100000
100000
100000
100000
100000
100000
100000
100000
100000
100000
100000
100000
100000
100000
100000
100000
100000
100000
100000
100000
100000
100000
100000
100000
100000
100000
100000
100000
100000
100000
100000
100000
100000
100000
100000
100000
100000
100000
100000
100000
100000
100000
100000
100000
100000
100000
100000
100000
100000
99396.304
98221.233
99593.217
98349.674
99531.741
98453.443
99004.785
98873.297
99078.456
98774.116
98685.266
98757.116
99084.768
99512.542
99801.532
99949.036
99992.405
100000.61
100000.53
100000.17
100000.01
99999.998
99999.999
100000
100000
100000
100000
100000
100000
100000
100000
100000
100000
100000
100000
100000
100000
100000
100000
100000
100000
100000
100000
100000
100000
100000
100000
100000
100000
100000
100000
100000
100000
100000
100000
100000
100000
100000
100000
100000
100000
100000
100000
100000
100000
100000
100000
100000
100000
100000
100000
100000
100000
100000
100000
100000
100000
100000
100000
100000
99411.071
98269.147
99600.257
98396.758
99542.251
98496.828
99032.197
98902.724
99104.182
98809.956
98722.95
98788.705
99105.949
99522.054
99804.666
99949.565
99992.405
100000.58
100000.52
100000.17
100000.01
99999.998
99999.999
100000
100000
100000
100000
100000
100000
100000
100000
100000
100000
100000
100000
100000
100000
100000
100000
100000
100000
100000
100000
100000
100000
100000
100000
100000
100000
100000
100000
100000
100000
100000
100000
100000
100000
100000
100000
100000
100000
100000
100000
100000
100000
100000
100000
100000
100000
100000
100000
100000
100000
100000
100000
100000
100000
100000
100000
100000
99425.379
98315.933
99607.623
98442.455
99552.614
98539.006
99059.044
98931.472
99129.183
98844.926
98759.756
98819.788
99126.928
99531.577
99807.851
99950.122
99992.414
100000.55
100000.51
100000.17
100000.01
99999.998
99999.999
100000
100000
100000
100000
100000
100000
100000
100000
100000
100000
100000
100000
100000
100000
100000
100000
100000
100000
100000
100000
100000
100000
100000
100000
100000
100000
100000
100000
100000
100000
100000
100000
100000
100000
100000
100000
100000
100000
100000
100000
100000
100000
100000
100000
100000
100000
100000
100000
100000
100000
100000
100000
100000
100000
100000
100000
100000
99439.613
98362.169
99615.446
98487.311
99563.043
98580.563
99085.652
98959.94
99153.816
98879.37
98796.058
98850.639
99147.912
99541.214
99811.129
99950.718
99992.432
100000.51
100000.5
100000.16
100000.01
99999.998
99999.999
100000
100000
100000
100000
100000
100000
100000
100000
100000
100000
100000
100000
100000
100000
100000
100000
100000
100000
100000
100000
100000
100000
100000
100000
100000
100000
100000
100000
100000
100000
100000
100000
100000
100000
100000
100000
100000
100000
100000
100000
100000
100000
100000
100000
100000
100000
100000
100000
100000
100000
100000
100000
100000
100000
100000
100000
100000
99453.762
98408.015
99623.623
98531.611
99573.559
98621.715
99112.166
98988.308
99178.198
98913.478
98832.003
98881.465
99169.021
99551.035
99814.528
99951.361
99992.462
100000.49
100000.49
100000.16
100000.01
99999.998
99999.999
100000
100000
100000
100000
100000
100000
100000
100000
100000
100000
100000
100000
100000
100000
100000
100000
100000
100000
100000
100000
100000
100000
100000
100000
100000
100000
100000
100000
100000
100000
100000
100000
100000
100000
100000
100000
100000
100000
100000
100000
100000
100000
100000
100000
100000
100000
100000
100000
100000
100000
100000
100000
100000
100000
100000
100000
100000
99467.997
98454.057
99632.286
98575.8
99584.27
98662.87
99138.815
99016.826
99202.566
98947.514
98867.917
98912.505
99190.466
99561.152
99818.099
99952.065
99992.505
100000.46
100000.48
100000.16
100000.01
99999.998
99999.999
100000
100000
100000
100000
100000
100000
100000
100000
100000
100000
100000
100000
100000
100000
100000
100000
100000
100000
100000
100000
100000
100000
100000
100000
100000
100000
100000
100000
100000
100000
100000
100000
100000
100000
100000
100000
100000
100000
100000
100000
100000
100000
100000
100000
100000
100000
100000
100000
100000
100000
100000
100000
100000
100000
100000
100000
100000
99482.382
98500.525
99641.386
98620.164
99595.218
98704.272
99165.731
99045.679
99227.042
98981.699
98903.978
98943.989
99212.394
99571.648
99821.877
99952.84
99992.564
100000.43
100000.47
100000.16
100000.01
99999.998
99999.999
100000
100000
100000
100000
100000
100000
100000
100000
100000
100000
100000
100000
100000
100000
100000
100000
100000
100000
100000
100000
100000
100000
100000
100000
100000
100000
100000
100000
100000
100000
100000
100000
100000
100000
100000
100000
100000
100000
100000
100000
100000
100000
100000
100000
100000
100000
100000
100000
100000
100000
100000
100000
100000
100000
100000
100000
100000
99497.017
98547.813
99650.925
98665.041
99606.46
98746.251
99193.115
99075.101
99251.847
99016.284
98940.487
98976.163
99235.017
99582.641
99825.914
99953.7
99992.641
100000.4
100000.46
100000.15
100000.01
99999.998
99999.999
100000
100000
100000
100000
100000
100000
100000
100000
100000
100000
100000
100000
100000
100000
100000
100000
100000
100000
100000
100000
100000
100000
100000
100000
100000
100000
100000
100000
100000
100000
100000
100000
100000
100000
100000
100000
100000
100000
100000
100000
100000
100000
100000
100000
100000
100000
100000
100000
100000
100000
100000
100000
100000
100000
100000
100000
100000
99512.079
98596.377
99661.03
98710.814
99618.124
98789.145
99221.153
99105.325
99277.166
99051.508
98977.68
99009.27
99258.507
99594.227
99830.252
99954.659
99992.738
100000.37
100000.45
100000.15
100000.01
99999.998
99999.999
100000
100000
100000
100000
100000
100000
100000
100000
100000
100000
100000
100000
100000
100000
100000
100000
100000
100000
100000
100000
100000
100000
100000
100000
100000
100000
100000
100000
100000
100000
100000
100000
100000
100000
100000
100000
100000
100000
100000
100000
100000
100000
100000
100000
100000
100000
100000
100000
100000
100000
100000
100000
100000
100000
100000
100000
100000
99527.603
98646.519
99671.685
98757.795
99630.267
98833.243
99250.024
99136.57
99303.179
99087.637
99015.801
99043.566
99283.048
99606.514
99834.938
99955.73
99992.859
100000.35
100000.43
100000.15
100000.01
99999.999
99999.999
100000
100000
100000
100000
100000
100000
100000
100000
100000
100000
100000
100000
100000
100000
100000
100000
100000
100000
100000
100000
100000
100000
100000
100000
100000
100000
100000
100000
100000
100000
100000
100000
100000
100000
100000
100000
100000
100000
100000
100000
100000
100000
100000
100000
100000
100000
100000
100000
100000
100000
100000
100000
100000
100000
100000
100000
100000
99543.752
98698.721
99682.984
98806.361
99643.017
98878.949
99279.966
99169.091
99330.138
99124.961
99055.167
99079.345
99308.882
99619.635
99840.032
99956.929
99993.006
100000.32
100000.42
100000.15
100000.01
99999.999
99999.999
100000
100000
100000
100000
100000
100000
100000
100000
100000
100000
100000
100000
100000
100000
100000
100000
100000
100000
100000
100000
100000
100000
100000
100000
100000
100000
100000
100000
100000
100000
100000
100000
100000
100000
100000
100000
100000
100000
100000
100000
100000
100000
100000
100000
100000
100000
100000
100000
100000
100000
100000
100000
100000
100000
100000
100000
100000
99561.212
98753.4
99695.034
98856.872
99656.562
98926.641
99311.165
99203.119
99358.288
99163.753
99096.046
99116.907
99336.205
99633.71
99845.586
99958.272
99993.182
100000.3
100000.4
100000.14
100000.01
99999.999
99999.999
100000
100000
100000
100000
100000
100000