/*--------------------------------*- C++ -*----------------------------------*\
| =========                 |                                                 |
| \\      /  F ield         | OpenFOAM: The Open Source CFD Toolbox           |
|  \\    /   O peration     | Version:  2406                                  |
|   \\  /    A nd           | Website:  www.openfoam.com                      |
|    \\/     M anipulation  |                                                 |
\*---------------------------------------------------------------------------*/
FoamFile
{
    version     2.0;
    format      ascii;
    arch        "LSB;label=32;scalar=64";
    class       volScalarField;
    location    "0.00011";
    object      rho;
}
// * * * * * * * * * * * * * * * * * * * * * * * * * * * * * * * * * * * * * //

dimensions      [1 -3 0 0 0 0 0];

internalField   nonuniform List<scalar> 
16000
(
1.1642676
1.1699505
1.1660535
1.1665017
1.1669299
1.1665946
1.1668204
1.1666506
1.1667149
1.1666612
1.1667461
1.1667275
1.1666796
1.1665548
1.1664656
1.1664119
1.1663987
1.1663977
1.1663983
1.1663986
1.1663986
1.1663986
1.1663986
1.1663986
1.1663986
1.1663986
1.1663986
1.1663986
1.1663986
1.1663986
1.1663986
1.1663986
1.1663986
1.1663986
1.1663986
1.1663986
1.1663986
1.1663986
1.1663986
1.1663986
1.1663986
1.1663986
1.1663986
1.1663986
1.1663986
1.1663986
1.1663986
1.1663986
1.1663986
1.1663986
1.1663986
1.1663986
1.1663986
1.1663986
1.1663986
1.1663986
1.1663986
1.1663986
1.1663986
1.1663986
1.1663986
1.1663986
1.1663986
1.1663986
1.1663986
1.1663986
1.1663986
1.1663986
1.1663986
1.1663986
1.1663986
1.1663986
1.1663986
1.1663986
1.1663986
1.1663986
1.1663986
1.1663986
1.1663986
1.1663986
1.1659423
1.1691093
1.1671609
1.1671505
1.1674207
1.1672472
1.167395
1.1672901
1.1672957
1.1672671
1.1674215
1.1674382
1.1672964
1.1669372
1.1666443
1.1664696
1.1664122
1.1663985
1.166398
1.1663984
1.1663986
1.1663986
1.1663986
1.1663986
1.1663986
1.1663986
1.1663986
1.1663986
1.1663986
1.1663986
1.1663986
1.1663986
1.1663986
1.1663986
1.1663986
1.1663986
1.1663986
1.1663986
1.1663986
1.1663986
1.1663986
1.1663986
1.1663986
1.1663986
1.1663986
1.1663986
1.1663986
1.1663986
1.1663986
1.1663986
1.1663986
1.1663986
1.1663986
1.1663986
1.1663986
1.1663986
1.1663986
1.1663986
1.1663986
1.1663986
1.1663986
1.1663986
1.1663986
1.1663986
1.1663986
1.1663986
1.1663986
1.1663986
1.1663986
1.1663986
1.1663986
1.1663986
1.1663986
1.1663986
1.1663986
1.1663986
1.1663986
1.1663986
1.1663986
1.1663986
1.167273
1.1685008
1.1687728
1.1675649
1.1680029
1.167976
1.1680212
1.1680012
1.1678797
1.1679037
1.168101
1.1681953
1.1679826
1.1674061
1.1668926
1.16656
1.1664347
1.166401
1.1663977
1.1663981
1.1663985
1.1663986
1.1663986
1.1663986
1.1663986
1.1663986
1.1663986
1.1663986
1.1663986
1.1663986
1.1663986
1.1663986
1.1663986
1.1663986
1.1663986
1.1663986
1.1663986
1.1663986
1.1663986
1.1663986
1.1663986
1.1663986
1.1663986
1.1663986
1.1663986
1.1663986
1.1663986
1.1663986
1.1663986
1.1663986
1.1663986
1.1663986
1.1663986
1.1663986
1.1663986
1.1663986
1.1663986
1.1663986
1.1663986
1.1663986
1.1663986
1.1663986
1.1663986
1.1663986
1.1663986
1.1663986
1.1663986
1.1663986
1.1663986
1.1663986
1.1663986
1.1663986
1.1663986
1.1663986
1.1663986
1.1663986
1.1663986
1.1663986
1.1663986
1.1663986
1.1689296
1.1673046
1.1708776
1.1676664
1.1686762
1.1687508
1.1686609
1.1687429
1.1684798
1.1685539
1.1687569
1.1689833
1.1687398
1.167966
1.1672078
1.1666809
1.1664676
1.1664051
1.1663974
1.1663977
1.1663984
1.1663986
1.1663986
1.1663986
1.1663986
1.1663986
1.1663986
1.1663986
1.1663986
1.1663986
1.1663986
1.1663986
1.1663986
1.1663986
1.1663986
1.1663986
1.1663986
1.1663986
1.1663986
1.1663986
1.1663986
1.1663986
1.1663986
1.1663986
1.1663986
1.1663986
1.1663986
1.1663986
1.1663986
1.1663986
1.1663986
1.1663986
1.1663986
1.1663986
1.1663986
1.1663986
1.1663986
1.1663986
1.1663986
1.1663986
1.1663986
1.1663986
1.1663986
1.1663986
1.1663986
1.1663986
1.1663986
1.1663986
1.1663986
1.1663986
1.1663986
1.1663986
1.1663986
1.1663986
1.1663986
1.1663986
1.1663986
1.1663986
1.1663986
1.1663986
1.1706052
1.1660862
1.1730485
1.1676434
1.1694713
1.1695514
1.1693264
1.1694492
1.1691135
1.1692146
1.1694056
1.1698058
1.1695541
1.1686059
1.1675927
1.1668385
1.166514
1.166412
1.1663972
1.1663973
1.1663983
1.1663986
1.1663986
1.1663986
1.1663986
1.1663986
1.1663986
1.1663986
1.1663986
1.1663986
1.1663986
1.1663986
1.1663986
1.1663986
1.1663986
1.1663986
1.1663986
1.1663986
1.1663986
1.1663986
1.1663986
1.1663986
1.1663986
1.1663986
1.1663986
1.1663986
1.1663986
1.1663986
1.1663986
1.1663986
1.1663986
1.1663986
1.1663986
1.1663986
1.1663986
1.1663986
1.1663986
1.1663986
1.1663986
1.1663986
1.1663986
1.1663986
1.1663986
1.1663986
1.1663986
1.1663986
1.1663986
1.1663986
1.1663986
1.1663986
1.1663986
1.1663986
1.1663986
1.1663986
1.1663986
1.1663986
1.1663986
1.1663986
1.1663986
1.1663986
1.1726408
1.1643467
1.1756359
1.1675708
1.1702556
1.1704334
1.1699341
1.1702369
1.1698213
1.1698686
1.1700562
1.1706495
1.170421
1.1693213
1.1680501
1.167037
1.1665767
1.1664227
1.1663973
1.1663968
1.1663981
1.1663986
1.1663986
1.1663986
1.1663986
1.1663986
1.1663986
1.1663986
1.1663986
1.1663986
1.1663986
1.1663986
1.1663986
1.1663986
1.1663986
1.1663986
1.1663986
1.1663986
1.1663986
1.1663986
1.1663986
1.1663986
1.1663986
1.1663986
1.1663986
1.1663986
1.1663986
1.1663986
1.1663986
1.1663986
1.1663986
1.1663986
1.1663986
1.1663986
1.1663986
1.1663986
1.1663986
1.1663986
1.1663986
1.1663986
1.1663986
1.1663986
1.1663986
1.1663986
1.1663986
1.1663986
1.1663986
1.1663986
1.1663986
1.1663986
1.1663986
1.1663986
1.1663986
1.1663986
1.1663986
1.1663986
1.1663986
1.1663986
1.1663986
1.1663986
1.1749873
1.1620427
1.1787401
1.1674093
1.1710651
1.1713704
1.1704949
1.1711254
1.1705974
1.1705431
1.1707305
1.1715047
1.1713358
1.1701081
1.1685808
1.1672798
1.1666576
1.166438
1.1663981
1.1663962
1.1663978
1.1663985
1.1663986
1.1663986
1.1663986
1.1663986
1.1663986
1.1663986
1.1663986
1.1663986
1.1663986
1.1663986
1.1663986
1.1663986
1.1663986
1.1663986
1.1663986
1.1663986
1.1663986
1.1663986
1.1663986
1.1663986
1.1663986
1.1663986
1.1663986
1.1663986
1.1663986
1.1663986
1.1663986
1.1663986
1.1663986
1.1663986
1.1663986
1.1663986
1.1663986
1.1663986
1.1663986
1.1663986
1.1663986
1.1663986
1.1663986
1.1663986
1.1663986
1.1663986
1.1663986
1.1663986
1.1663986
1.1663986
1.1663986
1.1663986
1.1663986
1.1663986
1.1663986
1.1663986
1.1663986
1.1663986
1.1663986
1.1663986
1.1663986
1.1663986
1.1778055
1.1590019
1.1823906
1.1671369
1.1719256
1.1723564
1.1710198
1.1721788
1.1714119
1.1712501
1.1714623
1.1723451
1.1722987
1.1709611
1.1691851
1.1675698
1.1667589
1.1664589
1.1663996
1.1663956
1.1663975
1.1663985
1.1663986
1.1663986
1.1663986
1.1663986
1.1663986
1.1663986
1.1663986
1.1663986
1.1663986
1.1663986
1.1663986
1.1663986
1.1663986
1.1663986
1.1663986
1.1663986
1.1663986
1.1663986
1.1663986
1.1663986
1.1663986
1.1663986
1.1663986
1.1663986
1.1663986
1.1663986
1.1663986
1.1663986
1.1663986
1.1663986
1.1663986
1.1663986
1.1663986
1.1663986
1.1663986
1.1663986
1.1663986
1.1663986
1.1663986
1.1663986
1.1663986
1.1663986
1.1663986
1.1663986
1.1663986
1.1663986
1.1663986
1.1663986
1.1663986
1.1663986
1.1663986
1.1663986
1.1663986
1.1663986
1.1663986
1.1663986
1.1663986
1.1663986
1.1810781
1.1551976
1.1866127
1.166773
1.1728444
1.1734772
1.1714805
1.1733587
1.1722573
1.1720008
1.1721753
1.1732803
1.1732999
1.171894
1.1698635
1.1679093
1.1668824
1.1664862
1.1664021
1.166395
1.1663971
1.1663984
1.1663986
1.1663986
1.1663986
1.1663986
1.1663986
1.1663986
1.1663986
1.1663986
1.1663986
1.1663986
1.1663986
1.1663986
1.1663986
1.1663986
1.1663986
1.1663986
1.1663986
1.1663986
1.1663986
1.1663986
1.1663986
1.1663986
1.1663986
1.1663986
1.1663986
1.1663986
1.1663986
1.1663986
1.1663986
1.1663986
1.1663986
1.1663986
1.1663986
1.1663986
1.1663986
1.1663986
1.1663986
1.1663986
1.1663986
1.1663986
1.1663986
1.1663986
1.1663986
1.1663986
1.1663986
1.1663986
1.1663986
1.1663986
1.1663986
1.1663986
1.1663986
1.1663986
1.1663986
1.1663986
1.1663986
1.1663986
1.1663986
1.1663986
1.1848505
1.1504283
1.1916009
1.1662878
1.1737986
1.1748698
1.1718018
1.174666
1.1731118
1.1728383
1.1728926
1.174316
1.1743146
1.1729036
1.1706194
1.1683011
1.1670304
1.1665209
1.1664058
1.1663943
1.1663967
1.1663983
1.1663986
1.1663987
1.1663986
1.1663986
1.1663986
1.1663986
1.1663986
1.1663986
1.1663986
1.1663986
1.1663986
1.1663986
1.1663986
1.1663986
1.1663986
1.1663986
1.1663986
1.1663986
1.1663986
1.1663986
1.1663986
1.1663986
1.1663986
1.1663986
1.1663986
1.1663986
1.1663986
1.1663986
1.1663986
1.1663986
1.1663986
1.1663986
1.1663986
1.1663986
1.1663986
1.1663986
1.1663986
1.1663986
1.1663986
1.1663986
1.1663986
1.1663986
1.1663986
1.1663986
1.1663986
1.1663986
1.1663986
1.1663986
1.1663986
1.1663986
1.1663986
1.1663986
1.1663986
1.1663986
1.1663986
1.1663986
1.1663986
1.1663986
1.1893782
1.1441293
1.1977152
1.1656566
1.1746777
1.1766956
1.17188
1.1761751
1.1739369
1.1737584
1.173629
1.1753862
1.1754309
1.1739916
1.1714552
1.1687491
1.1672053
1.1665639
1.1664111
1.1663936
1.1663962
1.1663982
1.1663986
1.1663987
1.1663986
1.1663986
1.1663986
1.1663986
1.1663986
1.1663986
1.1663986
1.1663986
1.1663986
1.1663986
1.1663986
1.1663986
1.1663986
1.1663986
1.1663986
1.1663986
1.1663986
1.1663986
1.1663986
1.1663986
1.1663986
1.1663986
1.1663986
1.1663986
1.1663986
1.1663986
1.1663986
1.1663986
1.1663986
1.1663986
1.1663986
1.1663986
1.1663986
1.1663986
1.1663986
1.1663986
1.1663986
1.1663986
1.1663986
1.1663986
1.1663986
1.1663986
1.1663986
1.1663986
1.1663986
1.1663986
1.1663986
1.1663986
1.1663986
1.1663986
1.1663986
1.1663986
1.1663986
1.1663986
1.1663986
1.1663986
1.1949593
1.1357924
1.2051821
1.1648125
1.1754649
1.1787722
1.1720045
1.177843
1.1747955
1.1747767
1.1743964
1.1765009
1.1766639
1.1751492
1.1723789
1.1692588
1.16741
1.1666164
1.1664181
1.1663929
1.1663957
1.166398
1.1663986
1.1663987
1.1663986
1.1663986
1.1663986
1.1663986
1.1663986
1.1663986
1.1663986
1.1663986
1.1663986
1.1663986
1.1663986
1.1663986
1.1663986
1.1663986
1.1663986
1.1663986
1.1663986
1.1663986
1.1663986
1.1663986
1.1663986
1.1663986
1.1663986
1.1663986
1.1663986
1.1663986
1.1663986
1.1663986
1.1663986
1.1663986
1.1663986
1.1663986
1.1663986
1.1663986
1.1663986
1.1663986
1.1663986
1.1663986
1.1663986
1.1663986
1.1663986
1.1663986
1.1663986
1.1663986
1.1663986
1.1663986
1.1663986
1.1663986
1.1663986
1.1663986
1.1663986
1.1663986
1.1663986
1.1663986
1.1663986
1.1663986
1.2014411
1.1256218
1.2139803
1.1637755
1.1762819
1.1811356
1.1720796
1.17971
1.1756905
1.1758997
1.1752139
1.1776221
1.1780086
1.1764079
1.1733983
1.1698369
1.1676482
1.1666798
1.1664273
1.1663924
1.1663951
1.1663978
1.1663986
1.1663987
1.1663986
1.1663986
1.1663986
1.1663986
1.1663986
1.1663986
1.1663986
1.1663986
1.1663986
1.1663986
1.1663986
1.1663986
1.1663986
1.1663986
1.1663986
1.1663986
1.1663986
1.1663986
1.1663986
1.1663986
1.1663986
1.1663986
1.1663986
1.1663986
1.1663986
1.1663986
1.1663986
1.1663986
1.1663986
1.1663986
1.1663986
1.1663986
1.1663986
1.1663986
1.1663986
1.1663986
1.1663986
1.1663986
1.1663986
1.1663986
1.1663986
1.1663986
1.1663986
1.1663986
1.1663986
1.1663986
1.1663986
1.1663986
1.1663986
1.1663986
1.1663986
1.1663986
1.1663986
1.1663986
1.1663986
1.1663986
1.2086449
1.1137719
1.2241089
1.1625192
1.177164
1.1838359
1.1720989
1.1818116
1.1766423
1.177147
1.1761008
1.1787644
1.1794545
1.1777768
1.1745238
1.170491
1.1679242
1.1667558
1.1664391
1.1663919
1.1663944
1.1663976
1.1663986
1.1663987
1.1663986
1.1663986
1.1663986
1.1663986
1.1663986
1.1663986
1.1663986
1.1663986
1.1663986
1.1663986
1.1663986
1.1663986
1.1663986
1.1663986
1.1663986
1.1663986
1.1663986
1.1663986
1.1663986
1.1663986
1.1663986
1.1663986
1.1663986
1.1663986
1.1663986
1.1663986
1.1663986
1.1663986
1.1663986
1.1663986
1.1663986
1.1663986
1.1663986
1.1663986
1.1663986
1.1663986
1.1663986
1.1663986
1.1663986
1.1663986
1.1663986
1.1663986
1.1663986
1.1663986
1.1663986
1.1663986
1.1663986
1.1663986
1.1663986
1.1663986
1.1663986
1.1663986
1.1663986
1.1663986
1.1663986
1.1663986
1.2172008
1.099282
1.2360849
1.1610285
1.1781271
1.1870543
1.1720413
1.1842212
1.1776545
1.17857
1.177091
1.1799902
1.180977
1.1792646
1.1757656
1.171229
1.1682425
1.166846
1.1664538
1.1663916
1.1663936
1.1663973
1.1663986
1.1663987
1.1663986
1.1663986
1.1663986
1.1663986
1.1663986
1.1663986
1.1663986
1.1663986
1.1663986
1.1663986
1.1663986
1.1663986
1.1663986
1.1663986
1.1663986
1.1663986
1.1663986
1.1663986
1.1663986
1.1663986
1.1663986
1.1663986
1.1663986
1.1663986
1.1663986
1.1663986
1.1663986
1.1663986
1.1663986
1.1663986
1.1663986
1.1663986
1.1663986
1.1663986
1.1663986
1.1663986
1.1663986
1.1663986
1.1663986
1.1663986
1.1663986
1.1663986
1.1663986
1.1663986
1.1663986
1.1663986
1.1663986
1.1663986
1.1663986
1.1663986
1.1663986
1.1663986
1.1663986
1.1663986
1.1663986
1.1663986
1.2275752
1.0811784
1.2504192
1.1593744
1.1791855
1.1909552
1.1718729
1.1870366
1.1787024
1.1802464
1.1782235
1.1813432
1.1826072
1.1808959
1.1771374
1.1720594
1.1686071
1.166952
1.1664719
1.1663915
1.1663928
1.166397
1.1663985
1.1663987
1.1663987
1.1663986
1.1663986
1.1663986
1.1663986
1.1663986
1.1663986
1.1663986
1.1663986
1.1663986
1.1663986
1.1663986
1.1663986
1.1663986
1.1663986
1.1663986
1.1663986
1.1663986
1.1663986
1.1663986
1.1663986
1.1663986
1.1663986
1.1663986
1.1663986
1.1663986
1.1663986
1.1663986
1.1663986
1.1663986
1.1663986
1.1663986
1.1663986
1.1663986
1.1663986
1.1663986
1.1663986
1.1663986
1.1663986
1.1663986
1.1663986
1.1663986
1.1663986
1.1663986
1.1663986
1.1663986
1.1663986
1.1663986
1.1663986
1.1663986
1.1663986
1.1663986
1.1663986
1.1663986
1.1663986
1.1663986
1.2397757
1.0592756
1.2667429
1.158078
1.1804874
1.1956404
1.1716739
1.1903151
1.1798292
1.1821749
1.179506
1.1828535
1.1843893
1.1827241
1.1786628
1.1729931
1.1690213
1.1670746
1.1664935
1.1663917
1.1663919
1.1663966
1.1663985
1.1663987
1.1663987
1.1663986
1.1663986
1.1663986
1.1663986
1.1663986
1.1663986
1.1663986
1.1663986
1.1663986
1.1663986
1.1663986
1.1663986
1.1663986
1.1663986
1.1663986
1.1663986
1.1663986
1.1663986
1.1663986
1.1663986
1.1663986
1.1663986
1.1663986
1.1663986
1.1663986
1.1663986
1.1663986
1.1663986
1.1663986
1.1663986
1.1663986
1.1663986
1.1663986
1.1663986
1.1663986
1.1663986
1.1663986
1.1663986
1.1663986
1.1663986
1.1663986
1.1663986
1.1663986
1.1663986
1.1663986
1.1663986
1.1663986
1.1663986
1.1663986
1.1663986
1.1663986
1.1663986
1.1663986
1.1663986
1.1663986
1.2543718
1.0329713
1.285065
1.1580623
1.1818508
1.2014207
1.1713241
1.1940768
1.1809852
1.1843066
1.1808791
1.184494
1.1863359
1.1847723
1.1803598
1.1740355
1.1694848
1.1672128
1.1665182
1.166392
1.1663909
1.1663962
1.1663984
1.1663987
1.1663987
1.1663986
1.1663986
1.1663986
1.1663986
1.1663986
1.1663986
1.1663986
1.1663986
1.1663986
1.1663986
1.1663986
1.1663986
1.1663986
1.1663986
1.1663986
1.1663986
1.1663986
1.1663986
1.1663986
1.1663986
1.1663986
1.1663986
1.1663986
1.1663986
1.1663986
1.1663986
1.1663986
1.1663986
1.1663986
1.1663986
1.1663986
1.1663986
1.1663986
1.1663986
1.1663986
1.1663986
1.1663986
1.1663986
1.1663986
1.1663986
1.1663986
1.1663986
1.1663986
1.1663986
1.1663986
1.1663986
1.1663986
1.1663986
1.1663986
1.1663986
1.1663986
1.1663986
1.1663986
1.1663986
1.1663986
1.272259
0.99989551
1.3064916
1.1590747
1.1832701
1.2085964
1.1708552
1.1984661
1.1821825
1.1866131
1.1823001
1.1862102
1.1883867
1.1869767
1.1821889
1.1751622
1.1699849
1.1673621
1.1665449
1.1663924
1.1663898
1.1663958
1.1663984
1.1663987
1.1663987
1.1663986
1.1663986
1.1663986
1.1663986
1.1663986
1.1663986
1.1663986
1.1663986
1.1663986
1.1663986
1.1663986
1.1663986
1.1663986
1.1663986
1.1663986
1.1663986
1.1663986
1.1663986
1.1663986
1.1663986
1.1663986
1.1663986
1.1663986
1.1663986
1.1663986
1.1663986
1.1663986
1.1663986
1.1663986
1.1663986
1.1663986
1.1663986
1.1663986
1.1663986
1.1663986
1.1663986
1.1663986
1.1663986
1.1663986
1.1663986
1.1663986
1.1663986
1.1663986
1.1663986
1.1663986
1.1663986
1.1663986
1.1663986
1.1663986
1.1663986
1.1663986
1.1663986
1.1663986
1.1663986
1.1663986
1.29737
0.94933603
1.3357792
1.1618236
1.1844191
1.2183935
1.1698309
1.2034043
1.1831225
1.1889322
1.1837912
1.1880496
1.1904517
1.1891747
1.1840208
1.176292
1.1704835
1.16751
1.166571
1.1663928
1.1663887
1.1663954
1.1663983
1.1663987
1.1663987
1.1663986
1.1663986
1.1663986
1.1663986
1.1663986
1.1663986
1.1663986
1.1663986
1.1663986
1.1663986
1.1663986
1.1663986
1.1663986
1.1663986
1.1663986
1.1663986
1.1663986
1.1663986
1.1663986
1.1663986
1.1663986
1.1663986
1.1663986
1.1663986
1.1663986
1.1663986
1.1663986
1.1663986
1.1663986
1.1663986
1.1663986
1.1663986
1.1663986
1.1663986
1.1663986
1.1663986
1.1663986
1.1663986
1.1663986
1.1663986
1.1663986
1.1663986
1.1663986
1.1663986
1.1663986
1.1663986
1.1663986
1.1663986
1.1663986
1.1663986
1.1663986
1.1663986
1.1663986
1.1663986
1.1663986
1.326349
0.8767393
1.3700282
1.1696536
1.184214
1.2308821
1.1668013
1.2089902
1.1834091
1.191487
1.1853893
1.1901531
1.1923797
1.1911566
1.1856799
1.1772925
1.1709158
1.1676338
1.1665919
1.1663928
1.1663878
1.1663951
1.1663983
1.1663987
1.1663987
1.1663986
1.1663986
1.1663986
1.1663986
1.1663986
1.1663986
1.1663986
1.1663986
1.1663986
1.1663986
1.1663986
1.1663986
1.1663986
1.1663986
1.1663986
1.1663986
1.1663986
1.1663986
1.1663986
1.1663986
1.1663986
1.1663986
1.1663986
1.1663986
1.1663986
1.1663986
1.1663986
1.1663986
1.1663986
1.1663986
1.1663986
1.1663986
1.1663986
1.1663986
1.1663986
1.1663986
1.1663986
1.1663986
1.1663986
1.1663986
1.1663986
1.1663986
1.1663986
1.1663986
1.1663986
1.1663986
1.1663986
1.1663986
1.1663986
1.1663986
1.1663986
1.1663986
1.1663986
1.1663986
1.1663986
1.356225
0.79251209
1.399766
1.1842515
1.181955
1.2439523
1.1629899
1.2148314
1.1832469
1.1937571
1.186808
1.1921295
1.1938951
1.1928731
1.187004
1.1780239
1.1712026
1.167705
1.1666012
1.1663919
1.1663871
1.1663949
1.1663983
1.1663987
1.1663987
1.1663986
1.1663986
1.1663986
1.1663986
1.1663986
1.1663986
1.1663986
1.1663986
1.1663986
1.1663986
1.1663986
1.1663986
1.1663986
1.1663986
1.1663986
1.1663986
1.1663986
1.1663986
1.1663986
1.1663986
1.1663986
1.1663986
1.1663986
1.1663986
1.1663986
1.1663986
1.1663986
1.1663986
1.1663986
1.1663986
1.1663986
1.1663986
1.1663986
1.1663986
1.1663986
1.1663986
1.1663986
1.1663986
1.1663986
1.1663986
1.1663986
1.1663986
1.1663986
1.1663986
1.1663986
1.1663986
1.1663986
1.1663986
1.1663986
1.1663986
1.1663986
1.1663986
1.1663986
1.1663986
1.1663986
1.3831229
0.7158727
1.4172174
1.2026519
1.1768825
1.2567203
1.1586635
1.2201972
1.1823908
1.1950927
1.1877097
1.1932405
1.1952756
1.1942828
1.1878787
1.178352
1.1712724
1.1676991
1.1665938
1.1663899
1.1663868
1.166395
1.1663983
1.1663987
1.1663987
1.1663986
1.1663986
1.1663986
1.1663986
1.1663986
1.1663986
1.1663986
1.1663986
1.1663986
1.1663986
1.1663986
1.1663986
1.1663986
1.1663986
1.1663986
1.1663986
1.1663986
1.1663986
1.1663986
1.1663986
1.1663986
1.1663986
1.1663986
1.1663986
1.1663986
1.1663986
1.1663986
1.1663986
1.1663986
1.1663986
1.1663986
1.1663986
1.1663986
1.1663986
1.1663986
1.1663986
1.1663986
1.1663986
1.1663986
1.1663986
1.1663986
1.1663986
1.1663986
1.1663986
1.1663986
1.1663986
1.1663986
1.1663986
1.1663986
1.1663986
1.1663986
1.1663986
1.1663986
1.1663986
1.1663986
1.3928815
0.65972387
1.4304074
1.2124976
1.170292
1.2677209
1.1541735
1.2239795
1.1811178
1.1951571
1.1878261
1.1938254
1.1961377
1.1953255
1.1881895
1.1781975
1.1710925
1.1676092
1.1665697
1.1663872
1.166387
1.1663953
1.1663984
1.1663987
1.1663987
1.1663986
1.1663986
1.1663986
1.1663986
1.1663986
1.1663986
1.1663986
1.1663986
1.1663986
1.1663986
1.1663986
1.1663986
1.1663986
1.1663986
1.1663986
1.1663986
1.1663986
1.1663986
1.1663986
1.1663986
1.1663986
1.1663986
1.1663986
1.1663986
1.1663986
1.1663986
1.1663986
1.1663986
1.1663986
1.1663986
1.1663986
1.1663986
1.1663986
1.1663986
1.1663986
1.1663986
1.1663986
1.1663986
1.1663986
1.1663986
1.1663986
1.1663986
1.1663986
1.1663986
1.1663986
1.1663986
1.1663986
1.1663986
1.1663986
1.1663986
1.1663986
1.1663986
1.1663986
1.1663986
1.1663986
1.4106548
0.57799057
1.4430123
1.2262307
1.1574376
1.2825778
1.1502511
1.2251442
1.1804387
1.1938592
1.1873431
1.1942917
1.1965697
1.1956171
1.1878422
1.177599
1.1707024
1.1674547
1.1665344
1.1663844
1.1663876
1.1663957
1.1663984
1.1663987
1.1663987
1.1663986
1.1663986
1.1663986
1.1663986
1.1663986
1.1663986
1.1663986
1.1663986
1.1663986
1.1663986
1.1663986
1.1663986
1.1663986
1.1663986
1.1663986
1.1663986
1.1663986
1.1663986
1.1663986
1.1663986
1.1663986
1.1663986
1.1663986
1.1663986
1.1663986
1.1663986
1.1663986
1.1663986
1.1663986
1.1663986
1.1663986
1.1663986
1.1663986
1.1663986
1.1663986
1.1663986
1.1663986
1.1663986
1.1663986
1.1663986
1.1663986
1.1663986
1.1663986
1.1663986
1.1663986
1.1663986
1.1663986
1.1663986
1.1663986
1.1663986
1.1663986
1.1663986
1.1663986
1.1663986
1.1663986
1.4443003
0.46162476
1.4341749
1.2464496
1.1425481
1.2898425
1.1475931
1.2221986
1.1800909
1.1926587
1.1866397
1.1945414
1.1967371
1.1953188
1.1869643
1.1767002
1.1701974
1.1672745
1.1664972
1.1663825
1.1663886
1.1663963
1.1663985
1.1663987
1.1663987
1.1663986
1.1663986
1.1663986
1.1663986
1.1663986
1.1663986
1.1663986
1.1663986
1.1663986
1.1663986
1.1663986
1.1663986
1.1663986
1.1663986
1.1663986
1.1663986
1.1663986
1.1663986
1.1663986
1.1663986
1.1663986
1.1663986
1.1663986
1.1663986
1.1663986
1.1663986
1.1663986
1.1663986
1.1663986
1.1663986
1.1663986
1.1663986
1.1663986
1.1663986
1.1663986
1.1663986
1.1663986
1.1663986
1.1663986
1.1663986
1.1663986
1.1663986
1.1663986
1.1663986
1.1663986
1.1663986
1.1663986
1.1663986
1.1663986
1.1663986
1.1663986
1.1663986
1.1663986
1.1663986
1.1663986
1.4557828
0.42247328
1.3976979
1.2687464
1.1226014
1.2859139
1.1476509
1.2143177
1.1815849
1.1911897
1.1861351
1.1946678
1.1967738
1.1946581
1.1858586
1.1757531
1.1697098
1.1671145
1.166467
1.1663819
1.1663897
1.1663968
1.1663986
1.1663987
1.1663987
1.1663986
1.1663986
1.1663986
1.1663986
1.1663986
1.1663986
1.1663986
1.1663986
1.1663986
1.1663986
1.1663986
1.1663986
1.1663986
1.1663986
1.1663986
1.1663986
1.1663986
1.1663986
1.1663986
1.1663986
1.1663986
1.1663986
1.1663986
1.1663986
1.1663986
1.1663986
1.1663986
1.1663986
1.1663986
1.1663986
1.1663986
1.1663986
1.1663986
1.1663986
1.1663986
1.1663986
1.1663986
1.1663986
1.1663986
1.1663986
1.1663986
1.1663986
1.1663986
1.1663986
1.1663986
1.1663986
1.1663986
1.1663986
1.1663986
1.1663986
1.1663986
1.1663986
1.1663986
1.1663986
1.1663986
1.4077875
0.5560519
1.3552729
1.2498822
1.1254089
1.2609711
1.1546941
1.2041776
1.1826762
1.1895891
1.1859722
1.194658
1.1969021
1.193927
1.1849663
1.1750462
1.169376
1.1670128
1.1664495
1.1663819
1.1663906
1.1663971
1.1663986
1.1663987
1.1663987
1.1663986
1.1663986
1.1663986
1.1663986
1.1663986
1.1663986
1.1663986
1.1663986
1.1663986
1.1663986
1.1663986
1.1663986
1.1663986
1.1663986
1.1663986
1.1663986
1.1663986
1.1663986
1.1663986
1.1663986
1.1663986
1.1663986
1.1663986
1.1663986
1.1663986
1.1663986
1.1663986
1.1663986
1.1663986
1.1663986
1.1663986
1.1663986
1.1663986
1.1663986
1.1663986
1.1663986
1.1663986
1.1663986
1.1663986
1.1663986
1.1663986
1.1663986
1.1663986
1.1663986
1.1663986
1.1663986
1.1663986
1.1663986
1.1663986
1.1663986
1.1663986
1.1663986
1.1663986
1.1663986
1.1663986
1.3485752
0.77825888
1.3458868
1.1986016
1.1471475
1.2305819
1.1661711
1.1974935
1.1835051
1.1882454
1.1858324
1.1945104
1.1971639
1.1934629
1.1847046
1.1748487
1.1693119
1.1669985
1.1664481
1.1663822
1.1663907
1.1663971
1.1663986
1.1663987
1.1663987
1.1663986
1.1663986
1.1663986
1.1663986
1.1663986
1.1663986
1.1663986
1.1663986
1.1663986
1.1663986
1.1663986
1.1663986
1.1663986
1.1663986
1.1663986
1.1663986
1.1663986
1.1663986
1.1663986
1.1663986
1.1663986
1.1663986
1.1663986
1.1663986
1.1663986
1.1663986
1.1663986
1.1663986
1.1663986
1.1663986
1.1663986
1.1663986
1.1663986
1.1663986
1.1663986
1.1663986
1.1663986
1.1663986
1.1663986
1.1663986
1.1663986
1.1663986
1.1663986
1.1663986
1.1663986
1.1663986
1.1663986
1.1663986
1.1663986
1.1663986
1.1663986
1.1663986
1.1663986
1.1663986
1.1663986
1.344194
0.80950334
1.34171
1.1957014
1.156626
1.2181702
1.1727516
1.194882
1.1840959
1.1875336
1.1855356
1.1940049
1.1972323
1.1936961
1.1854768
1.1755187
1.1696937
1.1671375
1.1664781
1.166384
1.1663898
1.1663966
1.1663985
1.1663987
1.1663987
1.1663986
1.1663986
1.1663986
1.1663986
1.1663986
1.1663986
1.1663986
1.1663986
1.1663986
1.1663986
1.1663986
1.1663986
1.1663986
1.1663986
1.1663986
1.1663986
1.1663986
1.1663986
1.1663986
1.1663986
1.1663986
1.1663986
1.1663986
1.1663986
1.1663986
1.1663986
1.1663986
1.1663986
1.1663986
1.1663986
1.1663986
1.1663986
1.1663986
1.1663986
1.1663986
1.1663986
1.1663986
1.1663986
1.1663986
1.1663986
1.1663986
1.1663986
1.1663986
1.1663986
1.1663986
1.1663986
1.1663986
1.1663986
1.1663986
1.1663986
1.1663986
1.1663986
1.1663986
1.1663986
1.1663986
1.1336872
1.2023883
1.137444
1.1627864
1.1638223
1.1557708
1.1611224
1.1595212
1.1611546
1.1589873
1.1579117
1.1584046
1.1603957
1.1632685
1.1652063
1.1661169
1.1663631
1.1664038
1.1664019
1.1663995
1.1663987
1.1663986
1.1663986
1.1663986
1.1663986
1.1663986
1.1663986
1.1663986
1.1663986
1.1663986
1.1663986
1.1663986
1.1663986
1.1663986
1.1663986
1.1663986
1.1663986
1.1663986
1.1663986
1.1663986
1.1663986
1.1663986
1.1663986
1.1663986
1.1663986
1.1663986
1.1663986
1.1663986
1.1663986
1.1663986
1.1663986
1.1663986
1.1663986
1.1663986
1.1663986
1.1663986
1.1663986
1.1663986
1.1663986
1.1663986
1.1663986
1.1663986
1.1663986
1.1663986
1.1663986
1.1663986
1.1663986
1.1663986
1.1663986
1.1663986
1.1663986
1.1663986
1.1663986
1.1663986
1.1663986
1.1663986
1.1663986
1.1663986
1.1663986
1.1663986
1.1328919
1.2030449
1.1361035
1.16336
1.1643721
1.1555036
1.161016
1.1594048
1.1605929
1.1582999
1.1573444
1.1578758
1.1599897
1.1629902
1.1650252
1.1660542
1.1663499
1.1664036
1.1664024
1.1663998
1.1663987
1.1663986
1.1663986
1.1663986
1.1663986
1.1663986
1.1663986
1.1663986
1.1663986
1.1663986
1.1663986
1.1663986
1.1663986
1.1663986
1.1663986
1.1663986
1.1663986
1.1663986
1.1663986
1.1663986
1.1663986
1.1663986
1.1663986
1.1663986
1.1663986
1.1663986
1.1663986
1.1663986
1.1663986
1.1663986
1.1663986
1.1663986
1.1663986
1.1663986
1.1663986
1.1663986
1.1663986
1.1663986
1.1663986
1.1663986
1.1663986
1.1663986
1.1663986
1.1663986
1.1663986
1.1663986
1.1663986
1.1663986
1.1663986
1.1663986
1.1663986
1.1663986
1.1663986
1.1663986
1.1663986
1.1663986
1.1663986
1.1663986
1.1663986
1.1663986
1.1318217
1.2004556
1.1363727
1.1620392
1.1631884
1.1545723
1.1603814
1.1582965
1.1600113
1.1576794
1.1570767
1.1577642
1.1600298
1.1630318
1.1650391
1.1660542
1.1663486
1.1664032
1.1664024
1.1663998
1.1663987
1.1663986
1.1663986
1.1663986
1.1663986
1.1663986
1.1663986
1.1663986
1.1663986
1.1663986
1.1663986
1.1663986
1.1663986
1.1663986
1.1663986
1.1663986
1.1663986
1.1663986
1.1663986
1.1663986
1.1663986
1.1663986
1.1663986
1.1663986
1.1663986
1.1663986
1.1663986
1.1663986
1.1663986
1.1663986
1.1663986
1.1663986
1.1663986
1.1663986
1.1663986
1.1663986
1.1663986
1.1663986
1.1663986
1.1663986
1.1663986
1.1663986
1.1663986
1.1663986
1.1663986
1.1663986
1.1663986
1.1663986
1.1663986
1.1663986
1.1663986
1.1663986
1.1663986
1.1663986
1.1663986
1.1663986
1.1663986
1.1663986
1.1663986
1.1663986
1.133322
1.1992695
1.1370797
1.1620181
1.163304
1.1547933
1.1604764
1.1584098
1.1601462
1.1579109
1.1573486
1.1579683
1.1601813
1.1630975
1.1650622
1.1660582
1.1663488
1.1664029
1.1664023
1.1663998
1.1663987
1.1663986
1.1663986
1.1663986
1.1663986
1.1663986
1.1663986
1.1663986
1.1663986
1.1663986
1.1663986
1.1663986
1.1663986
1.1663986
1.1663986
1.1663986
1.1663986
1.1663986
1.1663986
1.1663986
1.1663986
1.1663986
1.1663986
1.1663986
1.1663986
1.1663986
1.1663986
1.1663986
1.1663986
1.1663986
1.1663986
1.1663986
1.1663986
1.1663986
1.1663986
1.1663986
1.1663986
1.1663986
1.1663986
1.1663986
1.1663986
1.1663986
1.1663986
1.1663986
1.1663986
1.1663986
1.1663986
1.1663986
1.1663986
1.1663986
1.1663986
1.1663986
1.1663986
1.1663986
1.1663986
1.1663986
1.1663986
1.1663986
1.1663986
1.1663986
1.1342134
1.1983151
1.1378614
1.162118
1.1633218
1.1550787
1.1606118
1.1585961
1.1603137
1.1581616
1.1576151
1.1581895
1.1603311
1.163164
1.1650841
1.1660619
1.1663488
1.1664027
1.1664022
1.1663997
1.1663987
1.1663986
1.1663986
1.1663986
1.1663986
1.1663986
1.1663986
1.1663986
1.1663986
1.1663986
1.1663986
1.1663986
1.1663986
1.1663986
1.1663986
1.1663986
1.1663986
1.1663986
1.1663986
1.1663986
1.1663986
1.1663986
1.1663986
1.1663986
1.1663986
1.1663986
1.1663986
1.1663986
1.1663986
1.1663986
1.1663986
1.1663986
1.1663986
1.1663986
1.1663986
1.1663986
1.1663986
1.1663986
1.1663986
1.1663986
1.1663986
1.1663986
1.1663986
1.1663986
1.1663986
1.1663986
1.1663986
1.1663986
1.1663986
1.1663986
1.1663986
1.1663986
1.1663986
1.1663986
1.1663986
1.1663986
1.1663986
1.1663986
1.1663986
1.1663986
1.1351426
1.1974338
1.138682
1.162252
1.1634003
1.1553981
1.1607777
1.1588065
1.160492
1.158405
1.1578693
1.1583993
1.1604727
1.1632271
1.1651047
1.1660653
1.1663488
1.1664025
1.1664021
1.1663997
1.1663987
1.1663986
1.1663986
1.1663986
1.1663986
1.1663986
1.1663986
1.1663986
1.1663986
1.1663986
1.1663986
1.1663986
1.1663986
1.1663986
1.1663986
1.1663986
1.1663986
1.1663986
1.1663986
1.1663986
1.1663986
1.1663986
1.1663986
1.1663986
1.1663986
1.1663986
1.1663986
1.1663986
1.1663986
1.1663986
1.1663986
1.1663986
1.1663986
1.1663986
1.1663986
1.1663986
1.1663986
1.1663986
1.1663986
1.1663986
1.1663986
1.1663986
1.1663986
1.1663986
1.1663986
1.1663986
1.1663986
1.1663986
1.1663986
1.1663986
1.1663986
1.1663986
1.1663986
1.1663986
1.1663986
1.1663986
1.1663986
1.1663986
1.1663986
1.1663986
1.1360244
1.1965843
1.1394689
1.1623711
1.1634701
1.1557017
1.1609353
1.1590045
1.1606594
1.158638
1.1581141
1.1586024
1.1606111
1.1632893
1.1651253
1.1660688
1.1663488
1.1664023
1.166402
1.1663997
1.1663987
1.1663986
1.1663986
1.1663986
1.1663986
1.1663986
1.1663986
1.1663986
1.1663986
1.1663986
1.1663986
1.1663986
1.1663986
1.1663986
1.1663986
1.1663986
1.1663986