/*--------------------------------*- C++ -*----------------------------------*\
| =========                 |                                                 |
| \\      /  F ield         | OpenFOAM: The Open Source CFD Toolbox           |
|  \\    /   O peration     | Version:  2406                                  |
|   \\  /    A nd           | Website:  www.openfoam.com                      |
|    \\/     M anipulation  |                                                 |
\*---------------------------------------------------------------------------*/
FoamFile
{
    version     2.0;
    format      ascii;
    arch        "LSB;label=32;scalar=64";
    class       volScalarField;
    location    "0.00011";
    object      T;
}
// * * * * * * * * * * * * * * * * * * * * * * * * * * * * * * * * * * * * * //

dimensions      [0 0 0 1 0 0 0];

internalField   nonuniform List<scalar> 
16000
(
298.79011
297.07113
298.41406
297.95867
298.09548
298.0272
298.07599
298.04126
298.05648
298.04648
298.06573
298.06367
298.05546
298.03104
298.01339
298.00265
298
297.99981
297.99994
297.99999
298
298
298
298
298
298
298
298
298
298
298
298
298
298
298
298
298
298
298
298
298
298
298
298
298
298
298
298
298
298
298
298
298
298
298
298
298
298
298
298
298
298
298
298
298
298
298
298
298
298
298
298
298
298
298
298
298
298
298
298
298.54936
297.67885
298.3423
298.15995
298.19017
298.16146
298.1922
298.17181
298.17454
298.17033
298.20386
298.20908
298.1815
298.10895
298.04972
298.01432
298.00274
297.99998
297.99987
297.99994
297.99999
298
298
298
298
298
298
298
298
298
298
298
298
298
298
298
298
298
298
298
298
298
298
298
298
298
298
298
298
298
298
298
298
298
298
298
298
298
298
298
298
298
298
298
298
298
298
298
298
298
298
298
298
298
298
298
298
298
298
298
298.43812
298.22769
298.20572
298.42737
298.26129
298.33503
298.31648
298.31842
298.2926
298.30062
298.34242
298.36407
298.32179
298.2046
298.10033
298.0327
298.0073
298.00046
297.99981
297.99988
297.99998
298
298
298
298
298
298
298
298
298
298
298
298
298
298
298
298
298
298
298
298
298
298
298
298
298
298
298
298
298
298
298
298
298
298
298
298
298
298
298
298
298
298
298
298
298
298
298
298
298
298
298
298
298
298
298
298
298
298
298
298.25492
298.95373
297.85557
298.82084
298.3043
298.53434
298.43812
298.47564
298.41297
298.43426
298.47583
298.52562
298.47682
298.31899
298.1647
298.05733
298.01397
298.00129
297.99974
297.99981
297.99996
298
298
298
298
298
298
298
298
298
298
298
298
298
298
298
298
298
298
298
298
298
298
298
298
298
298
298
298
298
298
298
298
298
298
298
298
298
298
298
298
298
298
298
298
298
298
298
298
298
298
298
298
298
298
298
298
298
298
298
298.08669
299.72989
297.46264
299.25675
298.27164
298.78341
298.53725
298.65072
298.5368
298.57184
298.60708
298.69477
298.64376
298.44986
298.24336
298.08949
298.02342
298.00269
297.9997
297.99973
297.99993
297.99999
298
298
298
298
298
298
298
298
298
298
298
298
298
298
298
298
298
298
298
298
298
298
298
298
298
298
298
298
298
298
298
298
298
298
298
298
298
298
298
298
298
298
298
298
298
298
298
298
298
298
298
298
298
298
298
298
298
298
297.85191
300.69343
296.94256
299.76691
298.278
298.99901
298.63805
298.83274
298.65949
298.72386
298.73596
298.86977
298.82175
298.59635
298.33692
298.13007
298.03619
298.00485
297.99973
297.99962
297.99989
297.99999
298
298
298
298
298
298
298
298
298
298
298
298
298
298
298
298
298
298
298
298
298
298
298
298
298
298
298
298
298
298
298
298
298
298
298
298
298
298
298
298
298
298
298
298
298
298
298
298
298
298
298
298
298
298
298
298
298
298
297.54971
301.86858
296.26344
300.38492
298.28178
299.21136
298.74299
299.02054
298.79754
298.88218
298.86319
299.05287
299.00961
298.75764
298.44556
298.1798
298.05273
298.00797
297.99987
297.99951
297.99984
297.99998
298
298
298
298
298
298
298
298
298
298
298
298
298
298
298
298
298
298
298
298
298
298
298
298
298
298
298
298
298
298
298
298
298
298
298
298
298
298
298
298
298
298
298
298
298
298
298
298
298
298
298
298
298
298
298
298
298
298
297.13944
303.33684
295.40348
301.12468
298.26439
299.43979
298.8549
299.20779
298.97296
299.02866
298.99055
299.24859
299.20643
298.93273
298.56933
298.23929
298.07345
298.01223
298.00017
297.99938
297.99977
297.99997
298
298
298
298
298
298
298
298
298
298
298
298
298
298
298
298
298
298
298
298
298
298
298
298
298
298
298
298
298
298
298
298
298
298
298
298
298
298
298
298
298
298
298
298
298
298
298
298
298
298
298
298
298
298
298
298
298
298
296.63428
305.11278
294.36393
301.98199
298.25907
299.67148
298.96325
299.41883
299.1606
299.15919
299.14501
299.44417
299.415
299.12465
298.70837
298.30903
298.0988
298.01781
298.00067
297.99925
297.99969
297.99995
298
298
298
298
298
298
298
298
298
298
298
298
298
298
298
298
298
298
298
298
298
298
298
298
298
298
298
298
298
298
298
298
298
298
298
298
298
298
298
298
298
298
298
298
298
298
298
298
298
298
298
298
298
298
298
298
298
298
296.01473
307.28333
293.10477
302.99212
298.24737
299.92076
299.0777
299.65009
299.35468
299.3029
299.29698
299.64909
299.63609
299.33279
298.86335
298.38964
298.12922
298.02491
298.00143
297.9991
297.99961
297.99993
298
298
298
298
298
298
298
298
298
298
298
298
298
298
298
298
298
298
298
298
298
298
298
298
298
298
298
298
298
298
298
298
298
298
298
298
298
298
298
298
298
298
298
298
298
298
298
298
298
298
298
298
298
298
298
298
298
298
295.18804
310.0937
291.51087
304.237
298.20589
300.14669
299.25577
299.88176
299.55265
299.47105
299.45309
299.85215
299.87735
299.5588
299.03479
298.48195
298.16526
298.03375
298.00251
297.99896
297.9995
297.99991
298
298
298
298
298
298
298
298
298
298
298
298
298
298
298
298
298
298
298
298
298
298
298
298
298
298
298
298
298
298
298
298
298
298
298
298
298
298
298
298
298
298
298
298
298
298
298
298
298
298
298
298
298
298
298
298
298
298
294.0663
313.83391
289.48547
305.78735
298.10586
300.41381
299.44017
300.13157
299.76379
299.67045
299.61088
300.0584
300.13744
299.80337
299.22431
298.58708
298.20754
298.04458
298.00395
297.99882
297.99939
297.99987
298
298
298
298
298
298
298
298
298
298
298
298
298
298
298
298
298
298
298
298
298
298
298
298
298
298
298
298
298
298
298
298
298
298
298
298
298
298
298
298
298
298
298
298
298
298
298
298
298
298
298
298
298
298
298
298
298
298
292.70978
318.58365
287.06522
307.67175
297.94795
300.72482
299.64779
300.39498
299.99349
299.88946
299.77888
300.27146
300.41323
300.07009
299.43349
298.7065
298.25687
298.05769
298.00585
297.9987
297.99926
297.99983
297.99999
298
298
298
298
298
298
298
298
298
298
298
298
298
298
298
298
298
298
298
298
298
298
298
298
298
298
298
298
298
298
298
298
298
298
298
298
298
298
298
298
298
298
298
298
298
298
298
298
298
298
298
298
298
298
298
298
298
291.17962
324.43013
284.25594
309.92431
297.75511
301.08208
299.88688
300.67255
300.24713
300.13009
299.96158
300.49504
300.70275
300.36061
299.66456
298.8418
298.31419
298.07345
298.00828
297.99861
297.99912
297.99979
297.99999
298
298
298
298
298
298
298
298
298
298
298
298
298
298
298
298
298
298
298
298
298
298
298
298
298
298
298
298
298
298
298
298
298
298
298
298
298
298
298
298
298
298
298
298
298
298
298
298
298
298
298
298
298
298
298
298
298
289.33878
332.0309
280.90166
312.71848
297.5124
301.49972
300.17391
300.96655
300.53083
300.4007
300.16605
300.73574
301.00693
300.67594
299.91964
298.99469
298.38049
298.09224
298.01134
297.99855
297.99896
297.99973
297.99998
298
298
298
298
298
298
298
298
298
298
298
298
298
298
298
298
298
298
298
298
298
298
298
298
298
298
298
298
298
298
298
298
298
298
298
298
298
298
298
298
298
298
298
298
298
298
298
298
298
298
298
298
298
298
298
298
298
287.0616
342.33307
276.85546
316.25825
297.19997
302.00288
300.52364
301.27874
300.85087
300.71202
300.40087
301.00092
301.33284
301.02059
300.20161
299.16703
298.45669
298.11443
298.01511
297.99853
297.99878
297.99966
297.99998
298.00001
298
298
298
298
298
298
298
298
298
298
298
298
298
298
298
298
298
298
298
298
298
298
298
298
298
298
298
298
298
298
298
298
298
298
298
298
298
298
298
298
298
298
298
298
298
298
298
298
298
298
298
298
298
298
298
298
284.35382
356.12208
272.117
320.72841
296.80458
302.64225
300.94559
301.61735
301.21742
301.06278
300.66834
301.29564
301.68952
301.40462
300.51536
299.36113
298.5436
298.14022
298.01964
297.99857
297.99859
297.99959
297.99997
298.00001
298
298
298
298
298
298
298
298
298
298
298
298
298
298
298
298
298
298
298
298
298
298
298
298
298
298
298
298
298
298
298
298
298
298
298
298
298
298
298
298
298
298
298
298
298
298
298
298
298
298
298
298
298
298
298
298
281.27781
374.89746
266.72298
326.28817
296.34134
303.4432
301.43746
301.97879
301.62513
301.44504
300.95656
301.61398
302.07897
301.83374
300.86471
299.57822
298.64137
298.16952
298.02487
297.99864
297.99838
297.9995
297.99996
298.00001
298
298
298
298
298
298
298
298
298
298
298
298
298
298
298
298
298
298
298
298
298
298
298
298
298
298
298
298
298
298
298
298
298
298
298
298
298
298
298
298
298
298
298
298
298
298
298
298
298
298
298
298
298
298
298
298
277.3605
401.30398
260.63954
333.25929
295.78547
304.4124
302.04141
302.38424
302.07079
301.85331
301.25613
301.94619
302.49219
302.29596
301.24198
299.81416
298.74779
298.20141
298.03058
297.99874
297.99815
297.99941
297.99994
298.00001
298
298
298
298
298
298
298
298
298
298
298
298
298
298
298
298
298
298
298
298
298
298
298
298
298
298
298
298
298
298
298
298
298
298
298
298
298
298
298
298
298
298
298
298
298
298
298
298
298
298
298
298
298
298
298
298
271.26296
449.18297
252.23111
343.47141
294.79991
305.90762
302.68723
302.79376
302.49117
302.2623
301.57117
302.30511
302.9176
302.7591
301.62281
300.05375
298.85501
298.2334
298.03623
297.99883
297.99793
297.99933
297.99993
298.00001
298
298
298
298
298
298
298
298
298
298
298
298
298
298
298
298
298
298
298
298
298
298
298
298
298
298
298
298
298
298
298
298
298
298
298
298
298
298
298
298
298
298
298
298
298
298
298
298
298
298
298
298
298
298
298
298
262.69011
540.9486
240.96571
357.32063
293.39927
307.37117
303.51149
302.96265
302.95962
302.6646
301.92491
302.71354
303.33798
303.17843
301.97364
300.26927
298.94979
298.26081
298.04088
297.99884
297.99772
297.99925
297.99993
298.00001
298
298
298
298
298
298
298
298
298
298
298
298
298
298
298
298
298
298
298
298
298
298
298
298
298
298
298
298
298
298
298
298
298
298
298
298
298
298
298
298
298
298
298
298
298
298
298
298
298
298
298
298
298
298
298
298
250.98257
696.47934
229.08209
372.40111
291.66065
308.76192
304.33143
303.12226
303.39021
303.00805
302.25028
303.1282
303.70787
303.52934
302.26046
300.43259
299.01562
298.27759
298.04316
297.99868
297.99756
297.99921
297.99992
298.00001
298
298
298
298
298
298
298
298
298
298
298
298
298
298
298
298
298
298
298
298
298
298
298
298
298
298
298
298
298
298
298
298
298
298
298
298
298
298
298
298
298
298
298
298
298
298
298
298
298
298
298
298
298
298
298
298
239.83766
920.35247
217.50201
386.93902
289.45156
310.07562
304.87767
303.41517
303.5369
303.2388
302.45379
303.50877
303.97909
303.81112
302.46064
300.51567
299.03685
298.27827
298.04193
297.99828
297.99748
297.99922
297.99993
298.00001
298
298
298
298
298
298
298
298
298
298
298
298
298
298
298
298
298
298
298
298
298
298
298
298
298
298
298
298
298
298
298
298
298
298
298
298
298
298
298
298
298
298
298
298
298
298
298
298
298
298
298
298
298
298
298
298
232.40061
1000
208.12207
400.51624
287.23918
310.92711
305.02426
303.81039
303.25041
303.49743
302.44753
303.77422
304.14012
304.01719
302.54917
300.50072
299.00588
298.26113
298.03709
297.9977
297.99751
297.99927
297.99994
298.00001
298
298
298
298
298
298
298
298
298
298
298
298
298
298
298
298
298
298
298
298
298
298
298
298
298
298
298
298
298
298
298
298
298
298
298
298
298
298
298
298
298
298
298
298
298
298
298
298
298
298
298
298
298
298
298
298
223.08567
1000
197.25856
413.22415
285.77285
311.00827
304.62926
304.55681
302.57362
303.6968
302.36823
303.84236
304.27347
304.09723
302.5069
300.39384
298.92962
298.22982
298.02977
297.9971
297.99764
297.99937
297.99996
298.00001
298
298
298
298
298
298
298
298
298
298
298
298
298
298
298
298
298
298
298
298
298
298
298
298
298
298
298
298
298
298
298
298
298
298
298
298
298
298
298
298
298
298
298
298
298
298
298
298
298
298
298
298
298
298
298
298
208.17087
1000
185.81438
415.95756
284.55788
311.27586
303.01923
305.60869
301.88389
303.54671
302.28907
303.91472
304.35082
304.06806
302.35537
300.22124
298.82707
298.1923
298.02187
297.99667
297.99784
297.99948
297.99997
298.00001
298
298
298
298
298
298
298
298
298
298
298
298
298
298
298
298
298
298
298
298
298
298
298
298
298
298
298
298
298
298
298
298
298
298
298
298
298
298
298
298
298
298
298
298
298
298
298
298
298
298
298
298
298
298
298
298
209.29568
1000
183.41603
398.70233
286.57142
310.04184
301.06332
305.88967
301.67155
303.2397
302.2345
303.97551
304.39607
303.96511
302.15219
300.03373
298.72612
298.1585
298.01539
297.9965
297.99806
297.99959
297.99999
298.00001
298
298
298
298
298
298
298
298
298
298
298
298
298
298
298
298
298
298
298
298
298
298
298
298
298
298
298
298
298
298
298
298
298
298
298
298
298
298
298
298
298
298
298
298
298
298
298
298
298
298
298
298
298
298
298
298
226.9189
1000
193.56417
377.01329
289.43824
309.48892
299.74095
305.10277
301.6746
302.93904
302.23431
304.00606
304.44991
303.84369
301.98589
299.89274
298.65669
298.13692
298.01161
297.99649
297.99823
297.99966
297.99999
298.00001
298
298
298
298
298
298
298
298
298
298
298
298
298
298
298
298
298
298
298
298
298
298
298
298
298
298
298
298
298
298
298
298
298
298
298
298
298
298
298
298
298
298
298
298
298
298
298
298
298
298
298
298
298
298
298
298
249.34219
647.44163
224.88639
353.21238
293.11978
308.77704
299.61811
304.35655
301.80963
302.68042
302.22854
303.99883
304.51786
303.76964
301.94258
299.85719
298.6448
298.13426
298.01136
297.99653
297.99826
297.99966
297.99999
298.00001
298
298
298
298
298
298
298
298
298
298
298
298
298
298
298
298
298
298
298
298
298
298
298
298
298
298
298
298
298
298
298
298
298
298
298
298
298
298
298
298
298
298
298
298
298
298
298
298
298
298
298
298
298
298
298
298
252.7727
612.25054
233.5735
344.88956
295.005
307.55378
300.22395
303.9587
301.93559
302.5428
302.1809
303.90786
304.53921
303.83023
302.10922
300.00595
298.73022
298.1654
298.01807
297.99697
297.99807
297.99955
297.99998
298.00001
298
298
298
298
298
298
298
298
298
298
298
298
298
298
298
298
298
298
298
298
298
298
298
298
298
298
298
298
298
298
298
298
298
298
298
298
298
298
298
298
298
298
298
298
298
298
298
298
298
298
298
298
298
298
298
298
305.238
283.904
305.02931
294.06962
297.74496
296.25538
296.73255
296.72068
296.96666
296.54571
296.27621
296.33178
296.78429
297.36998
297.7612
297.94385
297.99295
298.00105
298.00065
298.00017
298.00001
298
298
298
298
298
298
298
298
298
298
298
298
298
298
298
298
298
298
298
298
298
298
298
298
298
298
298
298
298
298
298
298
298
298
298
298
298
298
298
298
298
298
298
298
298
298
298
298
298
298
298
298
298
298
298
298
298
298
298
305.58216
283.78093
305.36906
293.86146
297.57905
296.15776
296.64488
296.628
296.80932
296.35529
296.14366
296.21276
296.68524
297.30889
297.72328
297.93117
297.99036
298.00104
298.00076
298.00023
298.00001
298
298
298
298
298
298
298
298
298
298
298
298
298
298
298
298
298
298
298
298
298
298
298
298
298
298
298
298
298
298
298
298
298
298
298
298
298
298
298
298
298
298
298
298
298
298
298
298
298
298
298
298
298
298
298
298
298
298
298
305.04663
284.03574
304.66165
293.85972
297.37179
296.03098
296.36774
296.48722
296.66664
296.22983
296.08759
296.19545
296.69103
297.31668
297.72583
297.9311
297.99009
298.00096
298.00075
298.00023
298.00002
298
298
298
298
298
298
298
298
298
298
298
298
298
298
298
298
298
298
298
298
298
298
298
298
298
298
298
298
298
298
298
298
298
298
298
298
298
298
298
298
298
298
298
298
298
298
298
298
298
298
298
298
298
298
298
298
298
298
298
304.76663
284.40539
304.4201
293.91112
297.34763
296.08253
296.3822
296.49718
296.68623
296.27626
296.14113
296.23772
296.72136
297.32985
297.73041
297.93188
297.99012
298.00091
298.00073
298.00023
298.00002
298
298
298
298
298
298
298
298
298
298
298
298
298
298
298
298
298
298
298
298
298
298
298
298
298
298
298
298
298
298
298
298
298
298
298
298
298
298
298
298
298
298
298
298
298
298
298
298
298
298
298
298
298
298
298
298
298
298
298
304.5564
284.75929
304.20671
294.01423
297.35365
296.12923
296.419
296.53336
296.72007
296.3279
296.19595
296.28429
296.75173
297.34322
297.73476
297.9326
297.99011
298.00087
298.00072
298.00022
298.00002
298
298
298
298
298
298
298
298
298
298
298
298
298
298
298
298
298
298
298
298
298
298
298
298
298
298
298
298
298
298
298
298
298
298
298
298
298
298
298
298
298
298
298
298
298
298
298
298
298
298
298
298
298
298
298
298
298
298
298
304.35685
285.11308
304.01188
294.12767
297.36901
296.18465
296.46293
296.57283
296.75658
296.37803
296.24842
296.32848
296.78042
297.35592
297.73886
297.93326
297.99011
298.00082
298.0007
298.00022
298.00002
298
298
298
298
298
298
298
298
298
298
298
298
298
298
298
298
298
298
298
298
298
298
298
298
298
298
298
298
298
298
298
298
298
298
298
298
298
298
298
298
298
298
298
298
298
298
298
298
298
298
298
298
298
298
298
298
298
298
298
304.16578
285.45468
303.82341
294.23833
297.38257
296.2373
296.50476
296.61041
296.79081
296.42595
296.29889
296.37129
296.80846
297.36844
297.74295
297.93394
297.9901
298.00078
298.00069
298.00022
298.00002
298
298
298
298
298
298
298
298
298
298
298
298
298
298
298
298
298
298
298
298
298
298
298
298
298
298
298
298
298
298
298
298
298
298
298
298
298
298
298
298
298
298
298
298
298
298
298
298
298
298
298
298
298
298
298
298
298
298
298
303.98059
285.78809
303.64212
294.34522
297.39598
296.28839
296.54569
296.64709
296.8241
296.47265
296.34815
296.41339
296.83624
297.38097
297.74711
297.93466
297.99011
298.00074
298.00068
298.00022
298.00002
298
298
298
298
298
298
298
298
298
298
298
298
298
298
298
298
298
298
298
298
298
298
298
298
298
298
298
298
298
298
298
298
298
298
298
298
298
298
298
298
298
298
298
298
298
298
298
298
298
298
298
298
298
298
298
298
298
298
298
303.79944
286.11699
303.46627
294.44946
297.40962
296.33857
296.58624
296.6834
296.8569
296.51862
296.39671
296.45516
296.86403
297.39366
297.7514
297.93543
297.99014
298.0007
298.00066
298.00022
298.00002
298
298
298
298
298
298
298
298
298
298
298
298
298
298
298
298
298
298
298
298
298
298
298
298
298
298
298
298
298
298
298
298
298
298
298
298
298
298
298
298
298
298
298
298
298
298
298
298
298
298
298
298
298
298
298
298
298
298
298
303.62119
286.44284
303.29406
294.55222
297.42342
296.38817
296.62666
296.71956
296.88941
296.5641
296.44476
296.49687
296.89201
297.4066
297.75584
297.93627
297.99017
298.00066
298.00065
298.00021
298.00002
298
298
298
298
298
298
298
298
298
298
298
298
298
298
298
298
298
298
298
298
298
298
298
298
298
298
298
298
298
298
298
298
298
298
298
298
298
298
298
298
298
298
298
298
298
298
298
298
298
298
298
298
298
298
298
298
298
298
298
303.44385
286.76967
303.12375
294.65428
297.43761
296.43756
296.66732
296.75585
296.92194
296.60943
296.49274
296.53884
296.92044
297.41993
297.76051
297.93718
297.99023
298.00062
298.00064
298.00021
298.00002
298
298
298
298
298
298
298
298
298
298
298
298
298
298
298
298
298
298
298
298
298
298
298
298
298
298
298
298
298
298
298
298
298
298
298
298
298
298
298
298
298
298
298
298
298
298
298
298
298
298
298
298
298
298
298
298
298
298
298
303.26614
287.0994
302.9538
294.7566
297.45219
296.4871
296.70846
296.79252
296.95465
296.65492
296.54089
296.58138
296.94953
297.43376
297.76546
297.93819
297.9903
298.00058
298.00062
298.00021
298.00002
298
298
298
298
298
298
298
298
298
298
298
298
298
298
298
298
298
298
298
298
298
298
298
298
298
298
298
298
298
298
298
298
298
298
298
298
298
298
298
298
298
298
298
298
298
298
298
298
298
298
298
298
298
298
298
298
298
298
298
303.08643
287.43518
302.78259
294.85979
297.46735
296.53708
296.75037
296.82987
296.98784
296.7009
296.58961
296.62483
296.97956
297.44825
297.77075
297.93931
297.9904
298.00055
298.0006
298.0002
298.00002
298
298
298
298
298
298
298
298
298
298
298
298
298
298
298
298
298
298
298
298
298
298
298
298
298
298
298
298
298
298
298
298
298
298
298
298
298
298
298
298
298
298
298
298
298
298
298
298
298
298
298
298
298
298
298
298
298
298
298
302.90318
287.78004
302.60875
294.96488
297.48321
296.58791
296.79337
296.86818
297.02177
296.74767
296.63922
296.66951
297.01076
297.46353
297.77643
297.94055
297.99052
298.00051
298.00059
298.0002
298.00002
298
298
298
298
298
298
298
298
298
298
298
298
298
298
298
298
298
298
298
298
298
298
298
298
298
298
298
298
298
298
298
298
298
298
298
298
298
298
298
298
298
298
298
298
298
298
298
298
298
298
298
298
298
298
298
298
298
298
298
302.71509
288.13641
302.43061
295.07278
297.49986
296.63994
296.83775
296.90771
297.05668
296.7956
296.69004
296.71576
297.04337
297.47973
297.78258
297.94195
297.99068
298.00048
298.00057
298.0002
298.00002
298
298
298
298
298
298
298
298
298
298
298
298
298
298
298
298
298
298
298
298
298
298
298
298
298
298
298
298
298
298
298
298
298
298
298
298
298
298
298
298
298
298
298
298
298
298
298
298
298
298
298
298
298
298
298
298
298
298
298
302.52046
288.50782
302.24682
295.18413
297.51756
296.69364
296.88381
296.94882
297.0929
296.84507
296.74248
296.76397
297.07772
297.49704
297.78926
297.94351
297.99087
298.00044
298.00055
298.00019
298.00002
298
298
298
298
298
298
298
298
298
298
298
298
298
298
298
298
298
298
298
298
298
298
298
298
298
298
298
298
298
298
298
298
298
298
298
298
298
298
298
298
298
298
298
298
298
298
298
298
298
298
298
298
298
298
298
298
298
298
298
302.31901
288.897
302.05619
295.29983
297.53656
296.74948
296.93183
296.99182
297.13076
296.89643
296.79691
296.81456
297.11407
297.51561
297.79655
297.94526
297.9911
298.00041
298.00053
298.00019
298.00002
298
298
298
298
298
298
298
298
298
298
298
298
298
298
298
298
298
298
298
298
298
298
298
298
298
298
298
298
298
298
298
298
298
298
298
298
298
298
298
298
298
298
298
298
298
298
298
298
298
298
298
298
298
298
298
298
298
298
298
302.10887
289.3072
301.85722
295.42086
297.55703
296.8078
296.98224
297.03705
297.17054
296.95009
296.85374
296.86789
297.15273
297.53561
297.80452
297.94723
297.99137
298.00038
298.00051
298.00018
298.00002
298
298
298
298
298
298
298
298
298
298
298
298
298
298
298
298
298
298
298
298
298
298
298
298
298
298
298
298
298
298
298
298
298
298
298
298
298
298
298
298
298
298
298
298
298
298
298
298
298
298
298
298
298
298
298
298
298
298
298
301.88795
289.74212
301.64862
295.54818
297.57906
296.86902
297.03549
297.08488
297.21261
297.00645
296.91343
296.92437
297.19404
297.55724
297.81326
297.94943
297.99169
298.00035
298.00049
298.00017
298.00002
298
298
298
298
298
298
298
298
298
298
298
298
298
298
298
298
298
298
298
298
298
298
298
298
298
298
298
298
298
298
298
298
298
298
298
298
298
298
298
298
298
298
298
298
298
298
298
298
298
298
298
298
298
298
298
298
298
298
298
301.65525
290.20461
301.42953
295.68276
297.60301
296.9335
297.09204
297.13558
297.25738
297.06594
296.97637
296.98442
297.23832
297.58065
297.82283
297.95188
297.99205
298.00032
298.00046
298.00016
298.00002
298
298
298
298
298
298
298
298
298
298
298
298
298
298
298
298
298
298
298
298
298
298
298
298
298
298
298
298
298
298
298
298
298
298
298
298
298
298
298
298
298
298
298
298
298
298
298
298
298
298
298
298
298
298
298
298
298
298
298
301.40882
290.69901
301.19855
295.82538
297.62929
297.00169
297.15239
297.18949
297.30531
297.12909
297.04306
297.04852
297.28595
297.60608
297.83334
297.95461
297.99247
298.00029
298.00043
298.00016
298.00001
298
298
298
298
298
298
298
298
298
298
298
298
298
298
298
298
298
298
298
298
298
298
298
298
298
298
298
298
298
298
298
298
298
298
298
298
298
298
298
298
298
298
298
298
298
298
298
298
298
298
298
298
298
298
298
298
298
298
298
301.14712
291.22938
300.95483
295.97695
297.65829
297.07409
297.21707
297.24734
297.35672
297.19637
297.11406
297.11715
297.33732
297.63372
297.84488
297.95766
297.99296
298.00026
298.0004
298.00015
298.00001
298
298
298
298
298
298
298
298
298
298
298
298
298
298
298
298
298
298
298
298
298
298
298
298
298
298
298
298
298
298
298
298
298
298
298
298
298
298
298
298
298
298
298
298
298
298
298
298
298
298
298
298
298
298
298
298
298
298
298
300.8681
291.80046
300.69667
296.13845
297.69077
297.15137
297.28646
297.30979
297.41219
297.26813
297.19001
297.1908
297.39287
297.66379
297.85753
297.96103
297.9935
298.00023
298.00037
298.00013
298.00001
298
298
298
298
298
298
298
298
298
298
298
298
298
298
298
298
298
298
298
298
298
298
298
298
298
298
298
298
298
298
298
298
298
298
298
298
298
298
298
298
298
298
298
298
298
298
298
298
298
298
298
298
298
298
298
298
298
298
298
300.57034
292.41721
300.42233
296.30861
297.72948
297.23442
297.36089
297.37747
297.47202
297.34451
297.27167
297.2704
297.45309
297.69658
297.87141
297.96477
297.99412
298.0002
298.00034
298.00012
298.00001
298
298
298
298
298
298
298
298
298
298
298
298
298
298
298
298
298
298
298
298
298
298
298
298
298
298
298
298
298
298
298
298
298
298
298
298
298
298
298
298
298
298
298
298
298
298
298
298
298
298
298
298
298
298
298
298
298
298
298
300.25179
293.08579
300.12979
296.49236
297.77164
297.32416
297.44067
297.45132
297.53637
297.42612
297.35975
297.35678
297.51853
297.73238
297.88662
297.96889
297.9948
298.00017
298.0003
298.00011
298.00001
298
298
298
298
298
298
298
298
298
298
298
298
298
298
298
298
298
298
298
298
298
298
298
298
298
298
298
298
298
298
298
298
298
298
298
298
298
298
298
298
298
298
298
298
298
298
298
298
298
298
298
298
298
298
298
298
298
298
298
299.90851
293.81747
299.8121
296.69439
297.81571
297.4222
297.52627
297.53221
297.60577
297.5133
297.455
297.45093
297.58973
297.77153
297.90329
297.97344
297.99556
298.00015
298.00025
298.00009
298.00001
298
298
298
298
298
298
298
298
298
298
298
298
298
298
298
298
298
298
298
298
298
298
298
298
298
298
298
298
298
298
298
298
298
298
298
298
298
298
298
298
298
298
298
298
298
298
298
298
298
298
298
298
298
298
298
298
298
298
298
299.54002
294.61539
299.46858
296.91891
297.8614
297.52949
297.61852
297.62067
297.68108
297.6064
297.55824
297.55374
297.66731
297.81442
297.92159
297.97845
297.99641
298.00012
298.00021
298.00008
298.00001
298
298
298
298
298
298
298
298
298
298
298
298
298
298
298
298
298
298
298
298
298
298
298
298
298
298
298
298
298
298
298
298
298
298
298
298
298
298
298
298
298
298
298
298
298
298
298
298
298
298
298
298
298
298
298
298
298
298
298
299.14776
295.47719
299.10458
297.17174
297.90629
297.64709
297.71825
297.71667
297.76325
297.7068
297.67001
297.6654
297.75143
297.86131
297.94167
297.98401
297.99736
298.00009
298.00016
298.00006
298.00001
298
298
298
298
298
298
298
298
298
298
298
298
298
298
298
298
298
298
298
298
298
298
298
298
298
298
298
298
298
298
298
298
298
298
298
298
298
298
298
298
298
298
298
298
298
298
298
298
298
298
298
298
298
298
298
298
298
298
298
298.72449
296.40502
298.70535
297.46144
297.94728
297.77766
297.82466
297.82096
297.8523
297.81606
297.79228
297.7873
297.84233
297.91234
297.96358
297.99021
297.99844
298.00009
298.00011
298.00004
298
298
298
298
298
298
298
298
298
298
298
298
298
298
298
298
298
298
298
298
298
298
298
298
298
298
298
298
298
298
298
298
298
298
298
298
298
298
298
298
298
298
298
298
298
298
298
298
298
298
298
298
298
298
298
298
298
298
298
298
298.31189
297.32292
298.32997
297.7728
297.98589
297.92237
297.93528
297.9357
297.94663
297.93356
297.92503
297.92261
297.94233
297.96684
297.98625
297.99702
297.99999
298.00016
298.00006
298.00001
298
298
298
298
298
298
298
298
298
298
298
298
298
298
298
298
298
298
298
298
298
298
298
298
298
298
298
298
298
298
298
298
298
298
298
298
298
298
298
298
298
298
298
298
298
298
298
298
298
298
298
298
298
298
298
298
298
298
298
298
297.07062
297.56814
297.16607
297.44542
297.36726
297.43935
297.39593
297.45899
297.49977
297.50457
297.46947
297.50991
297.64078
297.81053
297.93271
297.98275
297.99597
297.99931
297.99997
298.00002
298
298
298
298
298
298
298
298
298
298
298
298
298
298
298
298
298
298
298
298
298
298
298
298
298
298
298
298
298
298
298
298
298
298
298
298
298
298
298
298
298
298
298
298
298
298
298
298
298
298
298
298
298
298
298
298
298
298
298
298
297.65748
297.65066
297.66966
297.6417
297.66759
297.66776
297.69421
297.70852
297.73291
297.76404
297.82056
297.88965
297.94887
297.98404
297.99564
297.99903
297.99975
297.99994
297.99998
298
298
298
298
298
298
298
298
298
298
298
298
298
298
298
298
298
298
298
298
298
298
298
298
298
298
298
298
298
298
298
298
298
298
298
298
298
298
298
298
298
298
298
298
298
298
298
298
298
298
298
298
298
298
298
298
298
298
298
298
298
297.94865
297.94852
297.95054
297.95182
297.95171
297.95591
297.96021
297.96539
297.96902
297.97627
297.98609
297.99515
297.99981
298.00087
298.00058
298.00016
298.00004
298.00001
298
298
298
298
298
298
298
298
298
298
298
298
298
298
298
298
298
298
298
298
298
298
298
298
298
298
298
298
298
298
298
298
298
298
298
298
298
298
298
298
298
298
298
298
298
298
298
298
298
298
298
298
298
298
298
298
298
298
298
298
298
298
297.98854
297.98863
297.98919
297.98954
297.99068
297.99198
297.99361
297.99518
297.99747
298.00002
298.00183
298.00229
298.00166
298.00083
298.00029
298.00008
298.00002
298
298
298
298
298
298
298
298
298
298
298
298
298
298
298
298
298
298
298
298
298
298
298
298
298
298
298
298
298
298
298
298
298
298
298
298
298
298
298
298
298
298
298
298
298
298
298
298
298
298
298
298
298
298
298
298
298
298
298
298
298
298
298
298.00184
298.00186
298.00182
298.00179
298.00175
298.0017
298.00157
298.00142
298.00129
298.00116
298.00091
298.00058
298.00028
298.0001
298.00003
298.00001
298
298
298
298
298
298
298
298
298
298
298
298
298
298
298
298
298
298
298
298
298
298
298
298
298
298
298
298
298
298
298
298
298
298
298
298
298
298
298
298
298
298
298
298
298
298
298
298
298
298
298
298
298
298
298
298
298
298
298
298
298
298
298
298
298.00023
298.00023
298.00023