/*--------------------------------*- C++ -*----------------------------------*\
| =========                 |                                                 |
| \\      /  F ield         | OpenFOAM: The Open Source CFD Toolbox           |
|  \\    /   O peration     | Version:  2406                                  |
|   \\  /    A nd           | Website:  www.openfoam.com                      |
|    \\/     M anipulation  |                                                 |
\*---------------------------------------------------------------------------*/
FoamFile
{
    version     2.0;
    format      ascii;
    arch        "LSB;label=32;scalar=64";
    class       volVectorField;
    location    "0.00011";
    object      U;
}
// * * * * * * * * * * * * * * * * * * * * * * * * * * * * * * * * * * * * * //

dimensions      [0 1 -1 0 0 0 0];

internalField   nonuniform List<vector> 
16000
(
(20.395363 -1.0313784e-20 -0.43532671)
(20.302418 2.2109757e-21 -0.055390266)
(20.363889 -5.1499198e-23 0.019662834)
(20.317968 -2.2894282e-22 -0.30481021)
(20.295132 -1.7105666e-21 0.064127123)
(20.266822 -7.371199e-22 -0.20249916)
(20.245564 -4.0406323e-22 -0.035543468)
(20.208895 8.7207114e-23 -0.13870144)
(20.188925 1.1837128e-22 -0.060754539)
(20.153791 -1.2081878e-22 -0.1124646)
(20.123427 4.6378755e-23 -0.097285542)
(20.078824 -9.8571717e-23 -0.11655912)
(20.044434 -1.0924835e-21 -0.084635493)
(20.017341 -8.9594124e-23 -0.055451037)
(20.00539 7.7480637e-22 -0.022163986)
(20.000871 5.0459162e-22 -0.006833017)
(20.000077 3.8265641e-23 -0.00048193346)
(19.999962 -1.1521714e-25 0.00016729649)
(19.999989 -1.828752e-24 0.00011234782)
(19.999997 1.6893744e-24 1.7641908e-05)
(20 1.0052002e-25 7.2627559e-07)
(20 1.5195008e-26 -9.1757493e-07)
(20 -4.2994064e-27 -1.5684538e-07)
(20 5.9684061e-28 -8.937042e-09)
(20 6.2943622e-29 5.1119036e-09)
(20 4.0849977e-29 7.6267216e-10)
(20 -1.9131972e-30 1.1851363e-11)
(20 3.1385079e-31 -2.195084e-11)
(20 -5.8087684e-34 -3.2025135e-12)
(20 6.0096103e-34 -1.2208441e-12)
(20 0 -1.0234777e-12)
(20 1.274369e-35 3.4725953e-12)
(20 -7.3539286e-33 -6.1662056e-13)
(20 1.3669805e-32 7.2775075e-13)
(20 2.6668797e-32 4.0374779e-12)
(20 -5.3985638e-33 -9.4115713e-13)
(20 1.0435527e-32 4.3329574e-13)
(20 2.494576e-33 -8.4454977e-14)
(20 -2.9208876e-33 -2.236925e-12)
(20 -1.0797551e-32 9.90686e-13)
(20 -1.7456804e-32 2.4350701e-12)
(20 -2.9919878e-33 2.1583516e-12)
(20 1.1952367e-32 2.5414879e-12)
(20 -2.3220699e-34 -3.9904238e-13)
(20 -4.3505631e-34 -3.4550831e-12)
(20 1.0504805e-33 2.4369191e-13)
(20 -6.0600571e-33 5.6372696e-12)
(20 2.2799788e-33 -6.1772366e-12)
(20 -5.5314696e-33 -7.8989771e-12)
(20 2.4804041e-33 4.6925947e-12)
(20 -9.8740819e-34 6.7723206e-12)
(20 1.1132655e-33 -3.7828002e-13)
(20 -7.7385744e-34 -3.8370701e-12)
(20 7.3878992e-33 -2.7073112e-12)
(20 -2.6693428e-33 -2.7762373e-12)
(20 6.3182525e-33 9.0116485e-12)
(20 5.306502e-34 3.8687379e-12)
(20 -6.0490059e-33 -4.5745413e-12)
(20 -1.5167938e-33 -3.8599302e-12)
(20 -8.1996087e-33 -3.4118357e-12)
(20 2.461328e-33 7.2855665e-13)
(20 -3.3898621e-33 5.0679117e-12)
(20 -1.0922562e-33 6.967001e-12)
(20 1.6411039e-34 -4.5285984e-12)
(20 1.5772708e-34 -1.468539e-12)
(20 -1.0554776e-33 1.4143328e-12)
(20 2.318011e-33 -2.6619874e-12)
(20 -1.0726887e-32 4.0658681e-12)
(20 5.8576043e-33 -5.945684e-13)
(20 0 -1.0909054e-12)
(20 -4.683619e-33 3.6776253e-12)
(20 -1.3595361e-32 -6.3883634e-12)
(20 1.1276789e-33 -3.737363e-12)
(20 -6.9325304e-33 2.9084438e-12)
(20 -4.9321682e-33 5.8267053e-12)
(20 4.405784e-33 -1.9192466e-12)
(20 -8.2716583e-34 -7.3012749e-12)
(20 0 -9.8464261e-13)
(20 3.4959373e-33 2.5293692e-12)
(20 1.6145649e-32 8.266149e-13)
(20.335103 -7.346173e-22 -0.40068888)
(20.386576 1.8156927e-21 -0.29833566)
(20.34684 9.5730987e-23 -0.2350305)
(20.371585 3.2277351e-21 -0.45607824)
(20.297819 9.2975773e-22 -0.20150616)
(20.298172 -2.752213e-22 -0.36750965)
(20.251295 -3.4062979e-22 -0.26284307)
(20.225811 6.8678682e-23 -0.3417646)
(20.193138 -8.8664272e-23 -0.26431274)
(20.158786 5.0157541e-22 -0.32097315)
(20.122265 1.4206807e-21 -0.32469515)
(20.074601 3.311464e-22 -0.35775392)
(20.03905 6.1920097e-21 -0.2819777)
(20.01331 2.1647832e-21 -0.18828247)
(20.003603 -1.321515e-21 -0.083572313)
(20.000333 -3.0884719e-24 -0.029309739)
(19.999939 -1.5491303e-22 -0.0059932881)
(19.999947 2.6436436e-23 -0.00068121792)
(19.999992 8.0929409e-25 0.0001584419)
(19.999999 9.7766541e-25 7.0953212e-05)
(20.000001 9.1350431e-25 1.7922946e-05)
(20 4.9376991e-26 4.7764339e-07)
(20 0 -3.3624492e-07)
(20 -2.3187812e-27 -1.2099936e-07)
(20 -6.7282032e-28 -6.6447939e-09)
(20 3.4044691e-30 1.2106304e-09)
(20 -1.8888057e-29 4.7155046e-10)
(20 -1.0832564e-30 2.4710715e-11)
(20 4.9585809e-34 -4.285641e-12)
(20 -2.4771531e-32 -2.3820245e-12)
(20 3.1633894e-33 3.358759e-13)
(20 -1.0323105e-33 -7.2368073e-13)
(20 4.9587695e-34 -9.35914e-13)
(20 -4.4165402e-35 4.9853436e-13)
(20 1.6220207e-33 -7.7400171e-13)
(20 -1.3377362e-35 4.1140025e-12)
(20 4.0118679e-33 3.5319837e-12)
(20 7.7732273e-33 -1.021596e-13)
(20 1.853237e-34 3.4919568e-12)
(20 5.1190026e-34 -7.1855055e-13)
(20 2.175972e-33 -9.0370616e-13)
(20 -1.5564423e-33 -2.5917959e-13)
(20 8.6974595e-35 -2.1787446e-12)
(20 1.3849011e-32 -3.953858e-13)
(20 -5.3416261e-34 -3.1707381e-12)
(20 9.5174417e-33 -2.659645e-12)
(20 8.6407259e-33 3.7795877e-12)
(20 -1.0951251e-34 9.8729315e-14)
(20 -2.6363686e-33 2.4365684e-12)
(20 1.6834051e-33 4.6530329e-13)
(20 -2.9732697e-33 -2.8637845e-12)
(20 3.0713009e-34 -1.8503977e-12)
(20 -8.9352588e-33 -2.1352353e-12)
(20 1.5589063e-33 6.6079477e-12)
(20 1.8496285e-36 1.7253147e-12)
(20 2.0885887e-33 5.6873974e-12)
(20 3.1138898e-33 9.3069508e-12)
(20 0 -7.1125335e-12)
(20 -9.4146358e-33 -1.5021443e-11)
(20 -1.1976142e-33 -5.2737049e-12)
(20 -3.0291411e-33 8.018551e-12)
(20 1.5177555e-33 3.7292692e-12)
(20 -1.7247506e-33 -5.097466e-12)
(20 -1.0260247e-33 -1.6366411e-13)
(20 -4.7788393e-34 6.6531318e-13)
(20 6.9467475e-34 2.8065032e-12)
(20 -3.7167322e-34 7.4282737e-12)
(20 4.2044617e-33 3.629902e-12)
(20 -1.8084203e-33 -5.4631159e-12)
(20 1.0459371e-32 -6.7248411e-12)
(20 -2.6355443e-33 8.0627664e-12)
(20 -9.4281113e-34 6.1285076e-12)
(20 1.7269095e-33 -6.5898996e-12)
(20 1.5557895e-34 -5.0116628e-12)
(20 9.2766008e-34 3.2616621e-12)
(20 2.0460527e-34 -6.2304653e-13)
(20 -6.3615656e-33 -2.6988788e-13)
(20 -6.4922035e-34 -1.7846329e-13)
(20 -1.2939798e-33 -4.7385417e-12)
(20 -3.3914484e-33 1.8793311e-12)
(20.276611 -1.2870182e-21 -0.44944703)
(20.429824 -2.81843e-22 -0.68838601)
(20.349579 -5.8040603e-22 -0.4002383)
(20.404854 2.0921247e-21 -0.63917991)
(20.301889 2.0205392e-23 -0.51506318)
(20.320405 -7.2716366e-22 -0.52475799)
(20.253461 1.3861955e-22 -0.54354565)
(20.235772 -5.8689204e-22 -0.54006152)
(20.193689 0 -0.4955972)
(20.162538 2.6605319e-23 -0.52263164)
(20.11949 -5.4735947e-23 -0.56400934)
(20.067601 2.5429504e-22 -0.61107549)
(20.030561 -2.1195692e-21 -0.50416689)
(20.005586 -6.5391685e-21 -0.34852024)
(19.999015 4.2850227e-21 -0.16680732)
(19.998103 1.276115e-21 -0.063239937)
(19.999271 -3.7589408e-22 -0.015157553)
(19.999817 7.36163e-23 -0.002267581)
(19.999988 -4.8985189e-24 0.00012838867)
(20.000004 1.6491105e-24 0.00013495677)
(20.000003 -9.3936023e-25 4.3713284e-05)
(20 5.3990346e-28 3.9293967e-06)
(20 -8.7493476e-29 -3.2912271e-07)
(20 3.5386648e-27 -2.4734559e-07)
(20 9.873836e-28 -3.3361995e-08)
(20 9.2758544e-31 -2.2474659e-10)
(20 -3.8428667e-31 9.0354305e-10)
(20 1.9021823e-32 1.2471272e-10)
(20 2.2087886e-31 1.2032351e-12)
(20 -3.1067721e-32 3.7711865e-13)
(20 5.3835052e-33 -1.6660459e-13)
(20 1.3397775e-32 -3.4278029e-13)
(20 3.9564139e-34 1.5838651e-12)
(20 -7.1629722e-34 4.5378868e-12)
(20 5.9254923e-33 3.0454911e-12)
(20 -1.9873454e-34 -3.5316931e-12)
(20 1.2379097e-32 -5.8726509e-12)
(20 -2.2190124e-32 -5.169953e-12)
(20 1.4666422e-33 1.6168244e-12)
(20 -4.7818534e-33 8.4534426e-13)
(20 1.7412028e-33 2.9154324e-12)
(20 7.7430118e-34 3.0671462e-12)
(20 2.1833329e-33 -3.9987133e-12)
(20 2.6862473e-34 -1.318219e-12)
(20 -2.01407e-34 -3.0298803e-12)
(20 7.8541501e-34 -1.4632149e-12)
(20 -2.961096e-33 1.1521957e-11)
(20 2.5137968e-33 9.1762994e-12)
(20 2.7261191e-34 -4.8438228e-13)
(20 -1.0433441e-33 -2.3298299e-12)
(20 5.4310751e-34 -4.28456e-12)
(20 5.0979484e-35 -4.0779745e-12)
(20 -5.5412872e-33 -2.1150079e-12)
(20 4.1905435e-33 2.941069e-12)
(20 -3.3646516e-33 -2.6911294e-12)
(20 4.7824924e-33 4.3856724e-13)
(20 -1.4009389e-33 1.1527853e-11)
(20 -2.9489419e-33 -9.4126389e-13)
(20 -6.3963269e-34 -1.1073749e-11)
(20 8.8476327e-35 -5.6793361e-12)
(20 3.9162327e-33 2.3238157e-12)
(20 4.3561444e-33 2.6692905e-12)
(20 5.0381807e-33 -1.8623531e-12)
(20 -1.5543971e-33 -1.1550775e-13)
(20 9.5324825e-34 5.5849554e-13)
(20 -4.5461376e-34 5.7566408e-12)
(20 -4.0383995e-34 4.0721895e-12)
(20 -1.0227377e-32 -3.2944249e-12)
(20 7.7350429e-33 1.8573453e-12)
(20 1.6830817e-34 -3.8324423e-12)
(20 9.0719526e-34 -2.5410888e-12)
(20 -2.4333336e-33 5.2325768e-12)
(20 7.7502736e-35 2.5391883e-12)
(20 1.0015241e-34 -2.5854938e-12)
(20 1.8796927e-33 -5.6896382e-13)
(20 -8.8759393e-35 3.7917734e-13)
(20 1.3982379e-32 -2.164655e-12)
(20 3.0163626e-34 -1.9144317e-12)
(20 1.9409385e-33 7.1830768e-13)
(20 1.8744998e-34 2.0833138e-13)
(20.231791 -3.4760793e-21 -0.41984323)
(20.479035 -1.8908331e-22 -1.0032755)
(20.336676 -9.3092988e-23 -0.61572188)
(20.427027 9.9635368e-23 -0.85692081)
(20.30063 -3.9620455e-23 -0.83157879)
(20.332448 -2.6788896e-22 -0.67673469)
(20.250572 -1.5623917e-21 -0.83892855)
(20.239169 2.8444873e-24 -0.75024125)
(20.190026 5.6502565e-23 -0.73528117)
(20.162817 -1.0180242e-21 -0.71811234)
(20.112716 -1.8376891e-21 -0.80872444)
(20.055231 4.4471075e-24 -0.87197449)
(20.016059 3.2545936e-21 -0.75091986)
(19.992002 -2.3017616e-23 -0.53829259)
(19.990858 -3.3085428e-23 -0.27141378)
(19.994247 1.6544612e-23 -0.1083294)
(19.99811 5.7783522e-22 -0.028046795)
(19.999578 1.3010122e-23 -0.0047410076)
(19.999979 -1.2498093e-24 3.7742386e-05)
(20.000013 -1.6972273e-25 0.00021445153)
(20.000007 1.4938679e-24 7.8425032e-05)
(20.000001 1.7179071e-27 8.9594883e-06)
(20 2.0208302e-26 -2.4527319e-07)
(20 -5.7207736e-27 -4.1165559e-07)
(20 1.6230505e-27 -6.7910957e-08)
(20 -2.9284803e-28 -2.2204611e-09)
(20 3.8096805e-30 1.436421e-09)
(20 -6.6388793e-30 2.4493738e-10)
(20 5.6332242e-31 5.3949305e-12)
(20 3.5935926e-33 2.8259156e-13)
(20 -1.7741016e-32 2.3348051e-12)
(20 1.475321e-33 1.3918911e-12)
(20 -1.270577e-32 1.9769223e-12)
(20 5.0136287e-33 3.0309749e-12)
(20 4.6997173e-33 1.8221909e-12)
(20 1.2730889e-32 -6.0123228e-12)
(20 -1.1723171e-34 -4.3420723e-12)
(20 -1.481932e-32 -2.6297614e-12)
(20 -1.098977e-32 -3.149548e-12)
(20 -1.3641619e-32 2.0169696e-12)
(20 -7.5698897e-33 1.7963511e-12)
(20 -8.3897598e-33 7.7055833e-13)
(20 6.0498707e-33 8.2731803e-13)
(20 5.2328768e-34 -3.9819092e-12)
(20 8.9583744e-33 -1.3230914e-12)
(20 1.0873513e-32 7.9859313e-12)
(20 4.4359069e-34 9.2680079e-12)
(20 1.0977934e-32 4.764428e-12)
(20 -3.1374505e-33 -4.3481816e-12)
(20 1.1102756e-32 -8.7884095e-12)
(20 3.480121e-33 -4.313369e-12)
(20 2.6417807e-33 1.1239605e-12)
(20 1.3752473e-33 5.7630188e-13)
(20 6.5982892e-34 2.4903364e-12)
(20 9.8253765e-33 1.6362842e-13)
(20 -1.8208923e-33 2.8848883e-12)
(20 -1.380019e-33 8.9818837e-12)
(20 -2.0271227e-33 2.187933e-12)
(20 -8.1869503e-34 2.168613e-13)
(20 4.0168302e-33 -4.996753e-12)
(20 3.2889011e-33 -3.3312443e-12)
(20 4.6872776e-33 1.6853325e-12)
(20 6.8826957e-33 -1.1478422e-12)
(20 6.1121462e-34 -4.2713429e-12)
(20 1.930272e-33 2.5335962e-13)
(20 3.0129819e-33 6.419928e-12)
(20 1.3881906e-35 -3.9574539e-12)
(20 4.9088064e-33 -6.1014662e-12)
(20 1.4738097e-32 9.6028892e-12)
(20 1.9199946e-33 6.3858696e-12)
(20 -6.5111451e-35 -1.7003976e-12)
(20 -1.7403963e-34 -1.4191007e-12)
(20 -4.1439922e-34 -3.0764886e-13)
(20 3.0830121e-33 -3.3472963e-12)
(20 3.2539079e-35 -6.1381543e-12)
(20 3.3255968e-33 4.0765822e-12)
(20 -2.7593397e-33 6.416986e-12)
(20 -1.0112895e-32 -3.2453351e-12)
(20 4.5985787e-33 -4.5431785e-12)
(20 -1.5932812e-34 8.9976701e-13)
(20.206556 -5.9456863e-21 -0.39512353)
(20.526982 -7.4723933e-22 -1.3550192)
(20.311667 0 -0.83905697)
(20.454127 3.6498654e-23 -1.0789268)
(20.293604 8.2216943e-22 -1.1472071)
(20.343494 -3.5991948e-21 -0.83466369)
(20.248108 -7.7106061e-21 -1.1445675)
(20.23976 -1.4745193e-22 -0.96009973)
(20.184257 4.4221285e-21 -0.98632838)
(20.160024 5.3325954e-24 -0.90927795)
(20.102123 2.0219938e-21 -1.0608445)
(20.036947 1.206559e-21 -1.1396459)
(19.994996 -2.2868469e-22 -1.0179454)
(19.972325 1.0785537e-20 -0.75459426)
(19.978698 -3.8868603e-21 -0.39778871)
(19.988339 1.9672049e-21 -0.16624159)
(19.996233 1.1349846e-21 -0.045775631)
(19.999168 -4.8553483e-22 -0.0084946823)
(19.999952 -2.5917704e-23 -0.00020857575)
(20.000023 -1.5984485e-24 0.00030420153)
(20.000013 -6.129159e-24 0.00012439946)
(20.000002 4.2531157e-25 1.6957892e-05)
(20 9.2395778e-26 1.0943301e-07)
(20 -1.3929733e-26 -6.2475962e-07)
(20 -4.6413958e-28 -1.1905101e-07)
(20 3.4822147e-28 -6.1886547e-09)
(20 3.8304262e-29 2.1276711e-09)
(20 7.6660254e-31 4.2049076e-10)
(20 -9.7712071e-31 1.849719e-11)
(20 1.2130473e-31 -6.6664156e-12)
(20 5.9658352e-33 2.7614748e-12)
(20 -7.8106056e-34 2.4576521e-12)
(20 -8.2113315e-33 9.5524673e-13)
(20 6.4033006e-34 -1.2667547e-12)
(20 -7.6033015e-34 1.8879342e-13)
(20 1.9487924e-34 -2.5527932e-12)
(20 2.107941e-34 -3.407762e-12)
(20 -6.6038425e-33 3.9208855e-12)
(20 1.7643379e-33 -2.2627309e-12)
(20 7.2048296e-34 -9.5732645e-13)
(20 -1.5307664e-34 -1.1454719e-12)
(20 -1.0304596e-32 -2.1779659e-12)
(20 -3.6941157e-33 1.6063824e-12)
(20 -3.6219541e-33 -2.9364927e-12)
(20 -8.3672544e-34 2.0955052e-12)
(20 8.1099871e-33 9.0635239e-12)
(20 1.1574846e-32 7.2024394e-12)
(20 -6.3907962e-33 -1.1855159e-12)
(20 4.0829865e-33 -1.068111e-11)
(20 -1.3313274e-33 -5.2130153e-12)
(20 6.0484462e-33 -2.5285745e-12)
(20 -1.8394388e-33 5.4384948e-14)
(20 1.4441395e-33 1.6063753e-12)
(20 4.5028491e-33 -3.1159985e-13)
(20 -2.0105137e-33 -4.4457728e-13)
(20 2.9188631e-33 -9.5248495e-13)
(20 -4.0555097e-33 7.9242177e-12)
(20 3.7898642e-33 1.80416e-12)
(20 3.5026885e-33 1.6135774e-12)
(20 3.1602827e-33 7.1650254e-12)
(20 3.6614008e-33 -4.6230571e-12)
(20 3.0178067e-33 -8.5763469e-12)
(20 -4.0926857e-33 -7.221151e-13)
(20 -6.1991364e-34 4.4791324e-13)
(20 2.1471193e-33 2.3868869e-12)
(20 -3.6716409e-33 4.5783433e-12)
(20 -3.9422182e-33 -2.2480192e-12)
(20 5.5844184e-34 -4.7352967e-12)
(20 1.0031279e-33 2.1930147e-12)
(20 4.1211786e-33 3.9834908e-12)
(20 3.7563864e-33 -2.0466704e-12)
(20 -5.0411694e-34 1.4375557e-12)
(20 -1.482494e-33 4.0363976e-12)
(20 -3.570363e-33 -1.3176477e-12)
(20 4.5384151e-34 9.7178942e-13)
(20 4.6233988e-33 -3.2362101e-12)
(20 1.2057399e-32 -1.3332401e-12)
(20 3.7796194e-35 3.1627251e-12)
(20 1.0002492e-33 -2.6682769e-12)
(20 2.0577443e-34 2.3245275e-13)
(20.228076 -2.5763931e-22 -0.33040804)
(20.589147 -1.2619995e-21 -1.7663412)
(20.272274 -2.6955655e-21 -1.1054138)
(20.494794 -1.038507e-22 -1.2654673)
(20.280854 -2.0576298e-23 -1.494453)
(20.35911 8.5304495e-23 -0.96125095)
(20.2458 2.3797079e-23 -1.4703323)
(20.234691 2.4449294e-22 -1.2024169)
(20.177126 -2.1983728e-21 -1.2427998)
(20.15432 -2.2550895e-21 -1.1085916)
(20.088362 -5.0721934e-21 -1.3169986)
(20.01261 1.122781e-21 -1.4158163)
(19.966793 -7.9976757e-21 -1.3027415)
(19.945439 1.800171e-20 -0.99678023)
(19.961414 6.8109841e-21 -0.54658964)
(19.979633 -1.3407772e-20 -0.2382211)
(19.993329 -2.2821703e-22 -0.069179995)
(19.998491 1.0584493e-21 -0.013869685)
(19.999894 4.038111e-24 -0.0006909856)
(20.000037 1.1797861e-24 0.00039662717)
(20.000021 -1.4935352e-26 0.00018267331)
(20.000004 -1.0421052e-27 2.8996785e-05)
(20 -6.7497207e-29 9.1546228e-07)
(20 -1.0975016e-28 -8.8021392e-07)
(20 3.5014744e-27 -1.9101979e-07)
(20 5.6028294e-28 -1.3405144e-08)
(20 -1.1449277e-31 2.8920302e-09)
(20 2.3052139e-29 6.6921923e-10)
(20 1.8457242e-30 4.4009031e-11)
(20 4.9799351e-32 -7.9829412e-12)
(20 -8.3026446e-35 9.6549486e-13)
(20 3.1555581e-35 3.5942877e-14)
(20 -5.5886778e-34 1.4700274e-12)
(20 -4.0782085e-34 7.0414241e-13)
(20 4.2882076e-34 3.1339718e-12)
(20 9.7865073e-33 1.4945945e-12)
(20 2.143704e-33 -6.8408938e-12)
(20 3.1450414e-34 -3.5573703e-12)
(20 -1.728059e-32 2.3434407e-13)
(20 1.3057652e-32 -4.64671e-13)
(20 -3.1969785e-33 2.5095173e-12)
(20 1.3207841e-34 4.0074513e-12)
(20 6.897386e-34 -3.3987053e-13)
(20 -2.1474052e-32 -1.1271585e-12)
(20 6.9534253e-33 3.3917197e-13)
(20 2.2369122e-33 -1.1169746e-12)
(20 -1.3953338e-33 1.5140671e-13)
(20 4.4444752e-33 -1.9996491e-12)
(20 -7.9724773e-33 -5.9317364e-12)
(20 5.5287822e-33 -3.4938291e-12)
(20 1.5577696e-34 -1.5161245e-12)
(20 6.8127535e-33 6.439586e-12)
(20 -1.7966132e-33 3.3447533e-12)
(20 -8.9269616e-33 -4.294443e-12)
(20 -7.3009183e-34 3.8909471e-12)
(20 -7.117898e-33 4.7412621e-13)
(20 2.3956481e-33 -3.059778e-12)
(20 -7.8038419e-33 -3.1317723e-12)
(20 -1.5177467e-33 4.7005247e-12)
(20 6.962745e-33 1.137582e-11)
(20 1.1409988e-33 3.6065645e-12)
(20 -1.9268874e-33 -7.2102954e-12)
(20 9.3798082e-33 -7.0123631e-12)
(20 5.8847052e-34 -8.4866903e-13)
(20 1.8168614e-33 1.8778418e-12)
(20 2.3251172e-33 -3.79382e-13)
(20 -1.6725166e-33 -2.9199966e-12)
(20 -1.6825309e-33 3.195118e-12)
(20 9.6229226e-35 1.733597e-12)
(20 1.4996559e-33 1.342372e-13)
(20 1.0398234e-33 -2.6182321e-12)
(20 1.2114559e-33 3.0324524e-12)
(20 -1.0715191e-33 4.213195e-12)
(20 1.6810647e-33 -6.0876717e-12)
(20 2.018428e-35 1.5992134e-13)
(20 -7.1407795e-33 -3.1186124e-13)
(20 -3.1832681e-34 1.869878e-12)
(20 1.4040821e-36 3.6844552e-12)
(20 -3.7914109e-33 -5.4397595e-12)
(20 3.3164905e-34 -6.9077418e-14)
(20.319847 1.149456e-20 -0.22460717)
(20.663247 -3.8585486e-21 -2.2317012)
(20.218102 5.9020004e-21 -1.3938378)
(20.551048 -2.8242551e-21 -1.4318139)
(20.255886 -6.2628409e-21 -1.8913411)
(20.381656 4.665322e-21 -1.0691712)
(20.233426 -5.8878765e-23 -1.8258478)
(20.226244 -5.3350025e-23 -1.4549601)
(20.167912 2.4496604e-21 -1.5121404)
(20.144613 -1.6443673e-21 -1.320135)
(20.071137 -2.1506039e-22 -1.5815651)
(19.980869 1.9165513e-22 -1.7039848)
(19.930306 -3.376172e-21 -1.6035059)
(19.910065 -1.3620583e-21 -1.2634557)
(19.937839 1.3164963e-21 -0.71802791)
(19.967334 -4.8012157e-21 -0.32516603)
(19.989043 1.3466795e-22 -0.098976812)
(19.997435 4.2411606e-22 -0.021181405)
(19.999783 1.2987327e-23 -0.0014916574)
(20.000051 -1.0343319e-24 0.00048178261)
(20.000033 -3.1446895e-24 0.0002538444)
(20.000006 -1.143001e-24 4.5933098e-05)
(20 -1.2814246e-28 2.3557304e-06)
(20 8.7368164e-27 -1.1680005e-06)
(20 -9.2909565e-27 -2.865915e-07)
(20 -2.6677628e-27 -2.5080174e-08)
(20 -8.9272363e-30 3.6493673e-09)
(20 -4.8006811e-29 1.0004368e-09)
(20 4.4952632e-30 8.2554188e-11)
(20 -1.6667513e-32 -1.0709766e-11)
(20 3.8053436e-32 -2.0744033e-12)
(20 6.530861e-33 2.0640345e-12)
(20 3.1678843e-33 9.6604154e-15)
(20 6.9261299e-34 -1.9303423e-12)
(20 -8.9281603e-34 -1.9525207e-12)
(20 1.1624487e-32 1.6575786e-12)
(20 1.1065285e-32 3.1672611e-12)
(20 3.339034e-32 4.1907713e-12)
(20 2.3267977e-34 3.5542939e-12)
(20 -3.7314653e-33 8.2193219e-13)
(20 -3.5334283e-33 -1.1801621e-14)
(20 0 -2.0463405e-12)
(20 -8.2978411e-33 -1.9327961e-12)
(20 -4.3888454e-33 -1.4695799e-13)
(20 -6.8402241e-34 2.8673414e-12)
(20 -3.8451375e-33 -3.3503436e-12)
(20 -9.3208989e-33 -1.5022031e-12)
(20 2.3349503e-33 2.3701166e-12)
(20 9.7881936e-34 -2.205692e-13)
(20 -4.1450432e-33 -5.9110056e-13)
(20 4.9479881e-33 -4.4755571e-12)
(20 -2.4089802e-33 3.7059004e-12)
(20 8.5449187e-34 7.3394459e-12)
(20 -1.1623855e-33 -1.7205609e-12)
(20 1.7806796e-33 -6.132095e-12)
(20 -9.6061461e-34 -1.1844187e-11)
(20 -4.2186557e-33 -2.8617979e-12)
(20 2.7306906e-33 7.5291567e-12)
(20 -3.9496189e-33 9.0027473e-13)
(20 -5.6832494e-33 1.3879404e-13)
(20 -6.556628e-33 1.1812517e-11)
(20 -4.452009e-33 8.2887349e-12)
(20 1.5118351e-33 -3.5394249e-12)
(20 -4.3604813e-33 -6.0849392e-12)
(20 3.2541669e-33 -3.6423861e-12)
(20 -7.8463295e-35 1.7669798e-12)
(20 -2.6687357e-34 -2.7559434e-12)
(20 1.2124672e-33 -1.1938437e-12)
(20 -5.4111712e-34 2.2417625e-12)
(20 1.818287e-33 1.5526639e-12)
(20 2.3122138e-34 -2.8084311e-13)
(20 -6.6408771e-33 1.5447971e-12)
(20 3.0448267e-34 -1.5094903e-12)
(20 -1.221195e-33 -2.7643907e-12)
(20 5.0898652e-33 1.4492347e-12)
(20 8.9452499e-34 -1.8485066e-12)
(20 -9.5299617e-33 1.2704337e-12)
(20 6.867447e-34 6.5108339e-13)
(20 1.1184072e-33 1.9151461e-12)
(20 -1.2719859e-34 -1.409456e-12)
(20.532895 3.1381701e-20 -0.055828369)
(20.749653 -1.2445261e-21 -2.7587333)
(20.146095 4.2697088e-21 -1.7144415)
(20.620455 1.0091573e-20 -1.5711515)
(20.214916 -5.858596e-21 -2.3618942)
(20.412031 -1.4177291e-20 -1.1550435)
(20.209886 7.4794757e-21 -2.2215132)
(20.218354 4.7182493e-21 -1.698912)
(20.152364 -3.8556193e-21 -1.7980437)
(20.129329 2.6393196e-22 -1.5509202)
(20.045045 -2.8691789e-21 -1.8535894)
(19.944147 -3.2399731e-21 -2.0123135)
(19.885076 -2.8164688e-22 -1.9170774)
(19.865192 -6.6769042e-21 -1.5532099)
(19.906708 -8.7326058e-21 -0.91204894)
(19.950561 1.0376023e-20 -0.42776249)
(19.982966 2.1260326e-22 -0.13579702)
(19.995864 -6.8677512e-22 -0.030721205)
(19.999593 2.0452979e-22 -0.0026954352)
(20.000067 3.8783617e-24 0.00054712762)
(20.000049 1.1856828e-23 0.00033810367)
(20.00001 2.5436506e-25 6.8495976e-05)
(20.000001 -2.235159e-25 4.6294562e-06)
(20 -8.4333564e-27 -1.4713181e-06)
(20 2.6223892e-29 -4.0786569e-07)
(20 1.2091377e-27 -4.2390266e-08)
(20 9.6824469e-30 4.2836675e-09)
(20 3.9983802e-29 1.4142939e-09)
(20 4.384392e-30 1.4414078e-10)
(20 -1.2803147e-32 -1.0012422e-11)
(20 -3.7185305e-32 -5.104418e-12)
(20 -1.652291e-33 -1.4912394e-12)
(20 1.0129526e-32 6.5680611e-13)
(20 -1.3714637e-32 1.9595813e-12)
(20 -2.9952621e-33 -4.3357612e-12)
(20 8.0318849e-33 -4.5714804e-12)
(20 1.181543e-32 -1.0737895e-12)
(20 -1.228687e-32 3.6681765e-12)
(20 -1.1700392e-32 3.5566429e-12)
(20 -5.3175918e-33 -2.1816089e-12)
(20 -1.0964092e-32 -1.4786779e-12)
(20 -3.5335671e-33 1.2140205e-12)
(20 -1.2453942e-33 1.9627481e-12)
(20 -6.9032447e-33 2.2976748e-12)
(20 5.7431049e-34 1.1673013e-12)
(20 -2.7425798e-33 -4.0327504e-12)
(20 -5.0930981e-33 -2.8938925e-12)
(20 -6.278464e-33 5.4892692e-12)
(20 6.3536046e-33 3.856176e-12)
(20 -1.3669493e-33 -5.8756945e-12)
(20 1.281509e-33 -6.951123e-12)
(20 1.0073666e-33 -3.619559e-12)
(20 -2.2106985e-33 1.9367688e-12)
(20 -3.405773e-33 1.6079864e-12)
(20 -7.3397974e-33 -2.9421708e-12)
(20 3.3165912e-33 -3.8749394e-12)
(20 -5.3184839e-33 -6.4842185e-13)
(20 -5.5871982e-33 2.22116e-12)
(20 5.0297785e-34 3.0102042e-13)
(20 2.8377612e-34 -4.1526086e-12)
(20 -7.69634e-35 2.0882383e-12)
(20 -3.9167723e-33 4.0132415e-12)
(20 7.0357394e-34 -4.0762099e-12)
(20 9.1124742e-33 5.5870708e-12)
(20 2.3501154e-33 3.8662884e-12)
(20 1.4679564e-33 -3.11877e-12)
(20 -2.3928804e-34 1.810463e-12)
(20 -8.9424014e-34 5.3193491e-12)
(20 5.8152452e-33 -3.9244852e-12)
(20 -1.1012268e-33 3.2582311e-12)
(20 -2.0311672e-34 6.2853673e-12)
(20 4.8880304e-34 -2.6813077e-12)
(20 -8.5264465e-34 -1.8997765e-12)
(20 5.2123227e-33 -2.9545308e-12)
(20 -9.3804037e-34 3.0737753e-13)
(20 -3.1386995e-34 1.3545502e-12)
(20 7.8211218e-33 -1.811707e-12)
(20 -3.02208e-33 -1.4296685e-12)
(20 4.3056911e-34 1.8550445e-12)
(20 -3.3202406e-33 -3.5991323e-13)
(20.880873 -1.9407399e-20 0.15625343)
(20.84601 1.0891337e-20 -3.3644435)
(20.055036 -4.3617241e-21 -2.0740426)
(20.704633 7.2277302e-22 -1.6887702)
(20.157951 7.7147539e-22 -2.8952694)
(20.451757 -9.1115253e-21 -1.2292747)
(20.173475 1.1401373e-20 -2.6427281)
(20.212955 4.0130924e-21 -1.9423381)
(20.123562 -9.9927515e-21 -2.1255112)
(20.108829 2.7673404e-23 -1.8059747)
(20.012948 -3.4750377e-22 -2.1223266)
(19.902667 2.4166511e-22 -2.3224469)
(19.828366 3.3374839e-22 -2.2575893)
(19.808935 -8.5067367e-21 -1.8666895)
(19.866507 -8.4150147e-21 -1.1297638)
(19.928305 -6.4172953e-21 -0.54654719)
(19.974615 5.1763773e-21 -0.18021945)
(19.993611 9.6037147e-22 -0.042777037)
(19.999289 -1.2967914e-23 -0.0043917861)
(20.000079 7.7907163e-24 0.00057812426)
(20.00007 4.3860572e-24 0.00043540073)
(20.000016 2.0167535e-24 9.7285397e-05)
(20.000001 -2.7315675e-25 7.9514001e-06)
(20 5.1846887e-27 -1.7677592e-06)
(20 -7.6917413e-27 -5.5647369e-07)
(20 1.5468136e-27 -6.6536957e-08)
(20 6.1218402e-30 4.6631154e-09)
(20 5.3369721e-29 1.9178981e-09)
(20 2.4968759e-32 2.1638875e-10)
(20 0 -1.1976745e-11)
(20 4.7963621e-32 -2.7787678e-12)
(20 -2.9758852e-34 1.9547336e-12)
(20 9.7477154e-33 -6.289552e-13)
(20 2.5399244e-33 -1.5272578e-12)
(20 4.748786e-33 1.5780757e-13)
(20 -6.1684649e-34 4.5136833e-13)
(20 -2.4283356e-33 3.2053347e-12)
(20 4.0473954e-34 -2.8963725e-12)
(20 1.2621576e-34 -1.9958731e-12)
(20 -2.6472518e-32 -3.3358143e-12)
(20 7.3758584e-34 -5.089545e-12)
(20 -1.2010282e-32 1.9203809e-12)
(20 9.8311812e-34 4.0857845e-12)
(20 1.8589855e-33 2.2951965e-12)
(20 -1.7229056e-33 1.3663426e-12)
(20 9.049679e-33 6.5183001e-12)
(20 -2.487309e-32 1.7600268e-12)
(20 -4.1649938e-33 -1.2175305e-12)
(20 -2.174317e-32 -2.1498267e-12)
(20 5.662256e-33 -6.0668136e-12)
(20 5.364386e-33 5.9961098e-13)
(20 -4.2478924e-33 -1.0954952e-12)
(20 4.1935124e-35 -4.5701576e-12)
(20 -6.6505908e-33 2.8196751e-12)
(20 -1.045487e-32 2.7371461e-12)
(20 -1.2933361e-32 2.9921962e-12)
(20 -3.7687392e-33 3.0553438e-14)
(20 -1.2821955e-32 -9.559632e-12)
(20 -8.6762697e-33 -7.6634863e-12)
(20 6.454085e-34 -5.4677186e-12)
(20 1.2273026e-33 -1.9119068e-12)
(20 -3.6928753e-33 6.6041616e-12)
(20 4.9568998e-33 3.1749843e-13)
(20 -5.8368258e-33 -4.7565333e-12)
(20 3.6062322e-33 5.7116666e-13)
(20 -6.0731004e-33 1.0223553e-12)
(20 7.547787e-34 -2.287342e-12)
(20 -9.4195478e-34 2.2965036e-12)
(20 -5.6086496e-34 -1.5195475e-12)
(20 -3.6968241e-34 2.2178195e-12)
(20 -6.4603417e-33 7.4758955e-12)
(20 -5.1660613e-33 -7.6427416e-14)
(20 -4.0714245e-33 3.3057854e-12)
(20 8.1574879e-33 -3.6315209e-13)
(20 1.255385e-33 1.0439012e-12)
(20 -2.2533173e-33 3.1815114e-12)
(20 2.8128978e-33 -7.2686501e-12)
(20 0 -4.2759535e-12)
(20 9.1746065e-33 2.7120463e-12)
(20 0 8.2148206e-13)
(21.387723 2.3790325e-20 0.41350525)
(20.966141 -1.2876856e-21 -4.073157)
(19.930749 5.7368871e-21 -2.4759257)
(20.820113 1.1017869e-20 -1.7792394)
(20.076599 -1.2190474e-20 -3.4983091)
(20.5051 -4.6691938e-21 -1.3129036)
(20.117761 3.8834414e-22 -3.1032491)
(20.206961 6.3871906e-21 -2.174352)
(20.081806 -2.2569101e-23 -2.4987105)
(20.083971 5.9578995e-23 -2.0720742)
(19.976662 -1.2655605e-20 -2.3930435)
(19.85096 -5.2423517e-21 -2.6438649)
(19.758957 -7.3230647e-21 -2.6272011)
(19.739464 -8.2769615e-21 -2.2032419)
(19.815533 -8.7305651e-22 -1.3715557)
(19.899352 1.4259821e-20 -0.68233151)
(19.963401 2.7790525e-22 -0.23283417)
(19.99047 -1.1088103e-21 -0.057641836)
(19.998827 -1.9199847e-22 -0.0066731635)
(20.000084 -1.4221807e-23 0.00055871522)
(20.000096 -1.5236693e-23 0.00054551361)
(20.000024 -6.2038661e-25 0.00013276173)
(20.000002 8.5523486e-25 1.2548172e-05)
(20 8.9322072e-28 -2.0303406e-06)
(20 7.7164746e-27 -7.3340508e-07)
(20 7.5390083e-27 -9.8719529e-08)
(20 -1.5195374e-28 4.6291371e-09)
(20 4.8882722e-30 2.5164832e-09)
(20 -8.4140043e-30 3.2538413e-10)
(20 1.9169031e-31 -1.2274495e-11)
(20 -1.4976365e-33 -6.0396311e-12)
(20 -6.422457e-34 1.7175278e-12)
(20 -6.0601251e-33 -4.8923354e-13)
(20 -1.4430695e-32 -3.4110378e-12)
(20 3.4136728e-33 -1.0365217e-12)
(20 2.6622017e-33 7.7417589e-13)
(20 -1.9625983e-33 2.1677404e-12)
(20 1.5209928e-32 2.4894645e-12)
(20 7.8465659e-33 -5.1887437e-12)
(20 1.0783606e-32 -6.9103909e-12)
(20 -3.5621624e-33 -8.5653666e-13)
(20 -5.653285e-33 -7.3433631e-13)
(20 -3.4985414e-33 -1.5627674e-12)
(20 -8.4387725e-33 3.2855189e-12)
(20 3.223666e-33 3.4171766e-12)
(20 -3.2036301e-35 6.6487696e-12)
(20 -1.3932808e-32 4.8532477e-12)
(20 -1.8092962e-33 2.4561275e-12)
(20 -1.0636337e-32 -1.0308174e-12)
(20 0 -6.6254773e-12)
(20 1.216613e-32 -1.0912647e-12)
(20 4.771909e-33 2.5494512e-12)
(20 -2.6358357e-33 2.3370671e-12)
(20 -1.8930259e-33 -2.0392521e-12)
(20 8.1152668e-34 4.3837136e-12)
(20 -3.6315189e-33 1.078422e-11)
(20 -8.97673e-34 3.8700798e-12)
(20 6.85669e-34 -7.9096739e-12)
(20 -4.7105851e-34 -1.5474418e-11)
(20 1.5340643e-33 -8.3946292e-12)
(20 9.5429223e-34 3.1041629e-12)
(20 7.7399795e-34 6.7146085e-12)
(20 -1.1331101e-32 -4.9412028e-12)
(20 1.323746e-33 -9.386618e-12)
(20 -1.4407275e-32 1.0157423e-11)
(20 -1.976916e-33 1.26184e-11)
(20 1.6392282e-33 -4.3061425e-12)
(20 3.4589781e-33 -7.8635582e-12)
(20 1.4001921e-33 -8.0632298e-12)
(20 1.7080893e-34 -5.2213827e-12)
(20 4.2946847e-33 4.370919e-12)
(20 3.2743317e-33 8.3325083e-12)
(20 -4.2820687e-34 7.6584515e-13)
(20 7.017677e-33 -1.0534598e-12)
(20 2.5890729e-33 1.4573791e-12)
(20 -1.0931083e-33 -1.7044611e-13)
(20 3.6842888e-33 1.3729209e-12)
(20 -1.0548525e-32 -4.5784189e-12)
(20 -8.2470473e-33 5.1446193e-13)
(20 2.4195009e-33 5.103149e-13)
(22.162058 3.1515626e-20 0.76151571)
(21.134248 -1.5688312e-21 -4.9007504)
(19.755629 5.6605808e-22 -2.9391506)
(20.982802 1.5633465e-21 -1.8215551)
(19.958619 1.4138245e-21 -4.1926532)
(20.564061 2.0958015e-22 -1.4068775)
(20.047489 -4.3436253e-21 -3.6576967)
(20.204481 9.798545e-22 -2.3722332)
(20.028316 1.3227178e-21 -2.9129196)
(20.053852 -4.9967828e-21 -2.3521401)
(19.932854 5.6152284e-22 -2.6735173)
(19.788961 -1.5813634e-20 -2.9732298)
(19.674506 6.3787168e-21 -3.0250683)
(19.65431 7.9247208e-22 -2.5663197)
(19.751699 -2.1656373e-20 -1.6384435)
(19.862199 -7.1781995e-22 -0.8360949)
(19.948585 4.0297532e-21 -0.29434982)
(19.986177 1.2443161e-21 -0.075643643)
(19.998148 2.1918627e-23 -0.0096382702)
(20.000077 -2.2122749e-23 0.00047162891)
(20.00013 4.8303626e-26 0.00066805578)
(20.000035 -2.7878976e-24 0.00017536752)
(20.000004 -4.7169835e-26 1.8654571e-05)
(20 5.4199497e-28 -2.2278206e-06)
(20 -1.019492e-26 -9.3947306e-07)
(20 -3.5455289e-27 -1.4010901e-07)
(20 1.1051909e-29 4.0059957e-09)
(20 -3.1304071e-29 3.2036394e-09)
(20 -1.6783944e-30 4.597324e-10)
(20 -2.7285246e-31 -1.04283e-11)
(20 1.0592746e-31 -6.4759872e-12)
(20 -1.1957103e-32 -1.0494781e-12)
(20 9.8329961e-34 1.8685403e-12)