/*--------------------------------*- C++ -*----------------------------------*\
| =========                 |                                                 |
| \\      /  F ield         | OpenFOAM: The Open Source CFD Toolbox           |
|  \\    /   O peration     | Version:  2406                                  |
|   \\  /    A nd           | Website:  www.openfoam.com                      |
|    \\/     M anipulation  |                                                 |
\*---------------------------------------------------------------------------*/
FoamFile
{
    version     2.0;
    format      ascii;
    arch        "LSB;label=32;scalar=64";
    class       volScalarField;
    location    "9e-05";
    object      alphat;
}
// * * * * * * * * * * * * * * * * * * * * * * * * * * * * * * * * * * * * * //

dimensions      [1 -1 -1 0 0 0 0];

internalField   nonuniform List<scalar> 
16000
(
1.1797071e-05
5.3261074e-05
9.4773233e-05
0.0001757434
0.0001337497
0.00017067076
0.0001997274
0.00016228503
0.00017539755
0.00016469264
0.00017497858
0.00023122847
0.00036047366
0.00092134445
0.0011663114
0.0011663095
0.0011663101
0.0011663104
0.0011663105
0.0011663105
0.0011663105
0.0011663105
0.0011663105
0.0011663105
0.0011663105
0.0011663106
0.0011663107
0.0011663107
0.0011663108
0.0011663109
0.0011663109
0.001166311
0.001166311
0.001166311
0.001166311
0.0011663111
0.0011663111
0.0011663111
0.0011663111
0.0011663111
0.0011663111
0.0011663111
0.0011663111
0.0011663111
0.0011663111
0.0011663111
0.0011663111
0.0011663111
0.0011663111
0.0011663111
0.0011663111
0.0011663111
0.0011663111
0.0011663111
0.0011663111
0.0011663111
0.0011663111
0.0011663111
0.0011663111
0.0011663111
0.0011663111
0.0011663111
0.0011663111
0.0011663111
0.0011663111
0.0011663111
0.0011663111
0.0011663111
0.0011663111
0.0011663111
0.0011663111
0.0011663111
0.0011663111
0.0011663111
0.0011663111
0.0011663111
0.0011663111
0.0011663111
0.0011663111
0.0011663111
1.1454766e-05
9.2811372e-05
0.00018006654
0.00016364457
0.00013538974
0.00019016537
0.00015950639
0.00014006923
0.00014527893
0.00014705232
9.2712261e-05
9.2275059e-05
0.00011989434
0.00026242124
0.0009753125
0.0011663108
0.0011663099
0.0011663101
0.0011663104
0.0011663105
0.0011663105
0.0011663105
0.0011663105
0.0011663105
0.0011663105
0.0011663106
0.0011663106
0.0011663107
0.0011663108
0.0011663109
0.0011663109
0.001166311
0.001166311
0.001166311
0.001166311
0.0011663111
0.0011663111
0.0011663111
0.0011663111
0.0011663111
0.0011663111
0.0011663111
0.0011663111
0.0011663111
0.0011663111
0.0011663111
0.0011663111
0.0011663111
0.0011663111
0.0011663111
0.0011663111
0.0011663111
0.0011663111
0.0011663111
0.0011663111
0.0011663111
0.0011663111
0.0011663111
0.0011663111
0.0011663111
0.0011663111
0.0011663111
0.0011663111
0.0011663111
0.0011663111
0.0011663111
0.0011663111
0.0011663111
0.0011663111
0.0011663111
0.0011663111
0.0011663111
0.0011663111
0.0011663111
0.0011663111
0.0011663111
0.0011663111
0.0011663111
0.0011663111
0.0011663111
1.1149141e-05
0.00032413337
0.00013116214
0.00011836107
0.00011958622
0.00017303896
0.00014435894
0.00013453978
0.00010530841
0.00012624457
6.221457e-05
5.4917086e-05
6.698436e-05
0.00013456677
0.00042210996
0.0011663142
0.0011663097
0.0011663098
0.0011663104
0.0011663105
0.0011663105
0.0011663105
0.0011663105
0.0011663105
0.0011663105
0.0011663106
0.0011663106
0.0011663107
0.0011663108
0.0011663108
0.0011663109
0.0011663109
0.001166311
0.001166311
0.001166311
0.001166311
0.0011663111
0.0011663111
0.0011663111
0.0011663111
0.0011663111
0.0011663111
0.0011663111
0.0011663111
0.0011663111
0.0011663111
0.0011663111
0.0011663111
0.0011663111
0.0011663111
0.0011663111
0.0011663111
0.0011663111
0.0011663111
0.0011663111
0.0011663111
0.0011663111
0.0011663111
0.0011663111
0.0011663111
0.0011663111
0.0011663111
0.0011663111
0.0011663111
0.0011663111
0.0011663111
0.0011663111
0.0011663111
0.0011663111
0.0011663111
0.0011663111
0.0011663111
0.0011663111
0.0011663111
0.0011663111
0.0011663111
0.0011663111
0.0011663111
0.0011663111
0.0011663112
7.3367468e-06
7.422926e-05
5.6269068e-05
0.0001029944
0.00011794582
0.00013498832
0.00012184281
0.00012370636
7.3108393e-05
0.00011405502
4.844928e-05
3.8300753e-05
4.4161741e-05
8.36332e-05
0.0002341891
0.0011578017
0.0011663095
0.0011663095
0.0011663102
0.0011663104
0.0011663105
0.0011663105
0.0011663105
0.0011663105
0.0011663105
0.0011663105
0.0011663106
0.0011663107
0.0011663108
0.0011663108
0.0011663109
0.0011663109
0.001166311
0.001166311
0.001166311
0.001166311
0.0011663111
0.0011663111
0.0011663111
0.0011663111
0.0011663111
0.0011663111
0.0011663111
0.0011663111
0.0011663111
0.0011663111
0.0011663111
0.0011663111
0.0011663111
0.0011663111
0.0011663111
0.0011663111
0.0011663111
0.0011663111
0.0011663111
0.0011663111
0.0011663111
0.0011663111
0.0011663111
0.0011663111
0.0011663111
0.0011663111
0.0011663111
0.0011663111
0.0011663111
0.0011663111
0.0011663111
0.0011663111
0.0011663111
0.0011663111
0.0011663111
0.0011663111
0.0011663111
0.0011663111
0.0011663111
0.0011663111
0.0011663111
0.0011663111
0.0011663111
0.0011663112
5.3335241e-06
4.8383412e-05
3.2483704e-05
6.6218859e-05
0.00010590235
0.00010885568
8.4612881e-05
0.00010794746
5.2538685e-05
0.00010366967
4.091525e-05
2.9307204e-05
3.1988161e-05
5.7553612e-05
0.00014662961
0.00067663392
0.0011663095
0.0011663091
0.0011663101
0.0011663104
0.0011663105
0.0011663105
0.0011663105
0.0011663105
0.0011663105
0.0011663105
0.0011663106
0.0011663107
0.0011663107
0.0011663108
0.0011663109
0.0011663109
0.001166311
0.001166311
0.001166311
0.001166311
0.0011663111
0.0011663111
0.0011663111
0.0011663111
0.0011663111
0.0011663111
0.0011663111
0.0011663111
0.0011663111
0.0011663111
0.0011663111
0.0011663111
0.0011663111
0.0011663111
0.0011663111
0.0011663111
0.0011663111
0.0011663111
0.0011663111
0.0011663111
0.0011663111
0.0011663111
0.0011663111
0.0011663111
0.0011663111
0.0011663111
0.0011663111
0.0011663111
0.0011663111
0.0011663111
0.0011663111
0.0011663111
0.0011663111
0.0011663111
0.0011663111
0.0011663111
0.0011663111
0.0011663111
0.0011663111
0.0011663111
0.0011663111
0.0011663111
0.0011663111
0.0011663112
4.1572061e-06
3.0456424e-05
2.1709184e-05
4.8005951e-05
7.4301458e-05
7.7582477e-05
5.8123698e-05
8.8147378e-05
3.9082354e-05
9.6490334e-05
3.5615214e-05
2.3762172e-05
2.4548575e-05
4.2159914e-05
9.8855023e-05
0.00042938946
0.0011663099
0.0011663086
0.0011663099
0.0011663104
0.0011663105
0.0011663105
0.0011663105
0.0011663105
0.0011663105
0.0011663105
0.0011663106
0.0011663107
0.0011663107
0.0011663108
0.0011663109
0.0011663109
0.001166311
0.001166311
0.001166311
0.001166311
0.0011663111
0.0011663111
0.0011663111
0.0011663111
0.0011663111
0.0011663111
0.0011663111
0.0011663111
0.0011663111
0.0011663111
0.0011663111
0.0011663111
0.0011663111
0.0011663111
0.0011663111
0.0011663111
0.0011663111
0.0011663111
0.0011663111
0.0011663111
0.0011663111
0.0011663111
0.0011663111
0.0011663111
0.0011663111
0.0011663111
0.0011663111
0.0011663111
0.0011663111
0.0011663111
0.0011663111
0.0011663111
0.0011663111
0.0011663111
0.0011663111
0.0011663111
0.0011663111
0.0011663111
0.0011663111
0.0011663111
0.0011663111
0.0011663111
0.0011663111
0.0011663112
3.3635923e-06
2.1120782e-05
1.5305604e-05
3.5851296e-05
5.1785432e-05
5.5665167e-05
4.4382012e-05
7.7717089e-05
3.1220976e-05
9.2732177e-05
3.2289739e-05
1.9928909e-05
1.9606233e-05
3.2268912e-05
7.0211761e-05
0.00028916486
0.0011663108
0.0011663081
0.0011663096
0.0011663104
0.0011663105
0.0011663105
0.0011663105
0.0011663105
0.0011663105
0.0011663105
0.0011663106
0.0011663106
0.0011663107
0.0011663108
0.0011663109
0.0011663109
0.0011663109
0.001166311
0.001166311
0.001166311
0.0011663111
0.0011663111
0.0011663111
0.0011663111
0.0011663111
0.0011663111
0.0011663111
0.0011663111
0.0011663111
0.0011663111
0.0011663111
0.0011663111
0.0011663111
0.0011663111
0.0011663111
0.0011663111
0.0011663111
0.0011663111
0.0011663111
0.0011663111
0.0011663111
0.0011663111
0.0011663111
0.0011663111
0.0011663111
0.0011663111
0.0011663111
0.0011663111
0.0011663111
0.0011663111
0.0011663111
0.0011663111
0.0011663111
0.0011663111
0.0011663111
0.0011663111
0.0011663111
0.0011663111
0.0011663111
0.0011663111
0.0011663111
0.0011663111
0.0011663111
0.0011663113
2.8194315e-06
1.5225121e-05
1.1536788e-05
2.8312931e-05
3.6073718e-05
4.3611297e-05
3.7671986e-05
8.3702796e-05
2.6754618e-05
8.4952902e-05
3.0642951e-05
1.7049446e-05
1.6118188e-05
2.5504025e-05
5.2455615e-05
0.00020392439
0.0011663126
0.0011663076
0.0011663093
0.0011663103
0.0011663105
0.0011663105
0.0011663105
0.0011663105
0.0011663105
0.0011663105
0.0011663106
0.0011663106
0.0011663107
0.0011663108
0.0011663108
0.0011663109
0.0011663109
0.001166311
0.001166311
0.001166311
0.001166311
0.0011663111
0.0011663111
0.0011663111
0.0011663111
0.0011663111
0.0011663111
0.0011663111
0.0011663111
0.0011663111
0.0011663111
0.0011663111
0.0011663111
0.0011663111
0.0011663111
0.0011663111
0.0011663111
0.0011663111
0.0011663111
0.0011663111
0.0011663111
0.0011663111
0.0011663111
0.0011663111
0.0011663111
0.0011663111
0.0011663111
0.0011663111
0.0011663111
0.0011663111
0.0011663111
0.0011663111
0.0011663111
0.0011663111
0.0011663111
0.0011663111
0.0011663111
0.0011663111
0.0011663111
0.0011663111
0.0011663111
0.0011663111
0.0011663111
0.0011663113
2.60832e-06
1.132696e-05
1.0493558e-05
2.2847394e-05
2.7296253e-05
3.5187599e-05
3.4177341e-05
9.3869449e-05
2.3635591e-05
6.8093112e-05
2.9764245e-05
1.4790384e-05
1.35672e-05
2.0673867e-05
4.1162768e-05
0.00014915985
0.0011663155
0.001166307
0.001166309
0.0011663102
0.0011663105
0.0011663105
0.0011663105
0.0011663105
0.0011663105
0.0011663105
0.0011663106
0.0011663106
0.0011663107
0.0011663108
0.0011663108
0.0011663109
0.0011663109
0.001166311
0.001166311
0.001166311
0.001166311
0.0011663111
0.0011663111
0.0011663111
0.0011663111
0.0011663111
0.0011663111
0.0011663111
0.0011663111
0.0011663111
0.0011663111
0.0011663111
0.0011663111
0.0011663111
0.0011663111
0.0011663111
0.0011663111
0.0011663111
0.0011663111
0.0011663111
0.0011663111
0.0011663111
0.0011663111
0.0011663111
0.0011663111
0.0011663111
0.0011663111
0.0011663111
0.0011663111
0.0011663111
0.0011663111
0.0011663111
0.0011663111
0.0011663111
0.0011663111
0.0011663111
0.0011663111
0.0011663111
0.0011663111
0.0011663111
0.0011663111
0.0011663111
0.0011663111
0.0011663113
2.5151435e-06
8.655502e-06
9.5591781e-06
1.8588328e-05
2.2084591e-05
2.892469e-05
3.3020845e-05
9.5759011e-05
2.1440161e-05
4.9543062e-05
2.9837739e-05
1.297516e-05
1.1608874e-05
1.7089513e-05
3.3030013e-05
0.00011234385
0.00093639726
0.0011663064
0.0011663085
0.0011663101
0.0011663105
0.0011663105
0.0011663105
0.0011663105
0.0011663105
0.0011663105
0.0011663105
0.0011663106
0.0011663107
0.0011663108
0.0011663108
0.0011663109
0.0011663109
0.001166311
0.001166311
0.001166311
0.001166311
0.0011663111
0.0011663111
0.0011663111
0.0011663111
0.0011663111
0.0011663111
0.0011663111
0.0011663111
0.0011663111
0.0011663111
0.0011663111
0.0011663111
0.0011663111
0.0011663111
0.0011663111
0.0011663111
0.0011663111
0.0011663111
0.0011663111
0.0011663111
0.0011663111
0.0011663111
0.0011663111
0.0011663111
0.0011663111
0.0011663111
0.0011663111
0.0011663111
0.0011663111
0.0011663111
0.0011663111
0.0011663111
0.0011663111
0.0011663111
0.0011663111
0.0011663111
0.0011663111
0.0011663111
0.0011663111
0.0011663111
0.0011663111
0.0011663111
0.0011663113
2.5718565e-06
6.7009399e-06
7.7881224e-06
1.7692068e-05
1.8859078e-05
2.388953e-05
3.4136486e-05
7.3661779e-05
1.977524e-05
3.7259165e-05
3.0712838e-05
1.1557865e-05
1.0059571e-05
1.4347329e-05
2.6977804e-05
8.6635732e-05
0.00066603695
0.0011663058
0.0011663081
0.00116631
0.0011663105
0.0011663105
0.0011663105
0.0011663105
0.0011663105
0.0011663105
0.0011663105
0.0011663106
0.0011663107
0.0011663108
0.0011663108
0.0011663109
0.0011663109
0.001166311
0.001166311
0.001166311
0.001166311
0.0011663111
0.0011663111
0.0011663111
0.0011663111
0.0011663111
0.0011663111
0.0011663111
0.0011663111
0.0011663111
0.0011663111
0.0011663111
0.0011663111
0.0011663111
0.0011663111
0.0011663111
0.0011663111
0.0011663111
0.0011663111
0.0011663111
0.0011663111
0.0011663111
0.0011663111
0.0011663111
0.0011663111
0.0011663111
0.0011663111
0.0011663111
0.0011663111
0.0011663111
0.0011663111
0.0011663111
0.0011663111
0.0011663111
0.0011663111
0.0011663111
0.0011663111
0.0011663111
0.0011663111
0.0011663111
0.0011663111
0.0011663111
0.0011663111
0.0011663114
2.9023465e-06
5.2168719e-06
4.8958168e-06
1.8074313e-05
1.6619884e-05
1.9829554e-05
3.7239841e-05
4.8041693e-05
1.8453735e-05
2.95957e-05
3.2379651e-05
1.0422916e-05
8.7981075e-06
1.2196336e-05
2.2348232e-05
6.8091035e-05
0.00048862431
0.0011663052
0.0011663076
0.0011663099
0.0011663105
0.0011663105
0.0011663105
0.0011663105
0.0011663105
0.0011663105
0.0011663105
0.0011663106
0.0011663107
0.0011663107
0.0011663108
0.0011663109
0.0011663109
0.001166311
0.001166311
0.001166311
0.001166311
0.0011663111
0.0011663111
0.0011663111
0.0011663111
0.0011663111
0.0011663111
0.0011663111
0.0011663111
0.0011663111
0.0011663111
0.0011663111
0.0011663111
0.0011663111
0.0011663111
0.0011663111
0.0011663111
0.0011663111
0.0011663111
0.0011663111
0.0011663111
0.0011663111
0.0011663111
0.0011663111
0.0011663111
0.0011663111
0.0011663111
0.0011663111
0.0011663111
0.0011663111
0.0011663111
0.0011663111
0.0011663111
0.0011663111
0.0011663111
0.0011663111
0.0011663111
0.0011663111
0.0011663111
0.0011663111
0.0011663111
0.0011663111
0.0011663111
0.0011663114
3.7656767e-06
4.1435074e-06
3.4605722e-06
1.7846955e-05
1.4715701e-05
1.658753e-05
3.9939068e-05
3.2105165e-05
1.7313793e-05
2.430806e-05
3.4616169e-05
9.4864817e-06
7.7565507e-06
1.046849e-05
1.8722496e-05
5.4342174e-05
0.00036731091
0.0011663047
0.001166307
0.0011663097
0.0011663104
0.0011663105
0.0011663105
0.0011663105
0.0011663105
0.0011663105
0.0011663105
0.0011663106
0.0011663107
0.0011663107
0.0011663108
0.0011663109
0.0011663109
0.001166311
0.001166311
0.001166311
0.001166311
0.0011663111
0.0011663111
0.0011663111
0.0011663111
0.0011663111
0.0011663111
0.0011663111
0.0011663111
0.0011663111
0.0011663111
0.0011663111
0.0011663111
0.0011663111
0.0011663111
0.0011663111
0.0011663111
0.0011663111
0.0011663111
0.0011663111
0.0011663111
0.0011663111
0.0011663111
0.0011663111
0.0011663111
0.0011663111
0.0011663111
0.0011663111
0.0011663111
0.0011663111
0.0011663111
0.0011663111
0.0011663111
0.0011663111
0.0011663111
0.0011663111
0.0011663111
0.0011663111
0.0011663111
0.0011663111
0.0011663111
0.0011663111
0.0011663111
0.0011663114
5.000349e-06
3.3798436e-06
2.8517768e-06
1.6990329e-05
1.3027536e-05
1.4013522e-05
3.8971514e-05
2.2690272e-05
1.6404141e-05
2.0411781e-05
3.6725677e-05
8.7000602e-06
6.8870105e-06
9.0547378e-06
1.5825555e-05
4.3905122e-05
0.00028149265
0.0011663042
0.0011663063
0.0011663095
0.0011663104
0.0011663105
0.0011663105
0.0011663105
0.0011663105
0.0011663105
0.0011663105
0.0011663106
0.0011663107
0.0011663107
0.0011663108
0.0011663109
0.0011663109
0.001166311
0.001166311
0.001166311
0.001166311
0.0011663111
0.0011663111
0.0011663111
0.0011663111
0.0011663111
0.0011663111
0.0011663111
0.0011663111
0.0011663111
0.0011663111
0.0011663111
0.0011663111
0.0011663111
0.0011663111
0.0011663111
0.0011663111
0.0011663111
0.0011663111
0.0011663111
0.0011663111
0.0011663111
0.0011663111
0.0011663111
0.0011663111
0.0011663111
0.0011663111
0.0011663111
0.0011663111
0.0011663111
0.0011663111
0.0011663111
0.0011663111
0.0011663111
0.0011663111
0.0011663111
0.0011663111
0.0011663111
0.0011663111
0.0011663111
0.0011663111
0.0011663111
0.0011663111
0.0011663115
4.4131397e-06
2.9007289e-06
2.357592e-06
1.6145804e-05
1.1494985e-05
1.26648e-05
3.3412549e-05
1.6632465e-05
1.5712638e-05
1.7518746e-05
3.699796e-05
8.0294956e-06
6.1545225e-06
7.8824926e-06
1.3475052e-05
3.5868982e-05
0.00021912343
0.0011663039
0.0011663056
0.0011663092
0.0011663104
0.0011663105
0.0011663105
0.0011663105
0.0011663105
0.0011663105
0.0011663105
0.0011663106
0.0011663107
0.0011663107
0.0011663108
0.0011663109
0.0011663109
0.001166311
0.001166311
0.001166311
0.001166311
0.0011663111
0.0011663111
0.0011663111
0.0011663111
0.0011663111
0.0011663111
0.0011663111
0.0011663111
0.0011663111
0.0011663111
0.0011663111
0.0011663111
0.0011663111
0.0011663111
0.0011663111
0.0011663111
0.0011663111
0.0011663111
0.0011663111
0.0011663111
0.0011663111
0.0011663111
0.0011663111
0.0011663111
0.0011663111
0.0011663111
0.0011663111
0.0011663111
0.0011663111
0.0011663111
0.0011663111
0.0011663111
0.0011663111
0.0011663111
0.0011663111
0.0011663111
0.0011663111
0.0011663111
0.0011663111
0.0011663111
0.0011663111
0.0011663111
0.0011663115
3.5204283e-06
2.359967e-06
1.9487051e-06
1.5990117e-05
1.0087467e-05
1.2350805e-05
2.5951297e-05
1.2528645e-05
1.5162574e-05
1.5346921e-05
3.3661257e-05
7.4366685e-06
5.5286083e-06
6.8983733e-06
1.1545265e-05
2.9768698e-05
0.00017288599
0.0011663038
0.0011663049
0.0011663089
0.0011663104
0.0011663105
0.0011663105
0.0011663105
0.0011663105
0.0011663105
0.0011663105
0.0011663106
0.0011663106
0.0011663107
0.0011663108
0.0011663109
0.0011663109
0.001166311
0.001166311
0.001166311
0.001166311
0.0011663111
0.0011663111
0.0011663111
0.0011663111
0.0011663111
0.0011663111
0.0011663111
0.0011663111
0.0011663111
0.0011663111
0.0011663111
0.0011663111
0.0011663111
0.0011663111
0.0011663111
0.0011663111
0.0011663111
0.0011663111
0.0011663111
0.0011663111
0.0011663111
0.0011663111
0.0011663111
0.0011663111
0.0011663111
0.0011663111
0.0011663111
0.0011663111
0.0011663111
0.0011663111
0.0011663111
0.0011663111
0.0011663111
0.0011663111
0.0011663111
0.0011663111
0.0011663111
0.0011663111
0.0011663111
0.0011663111
0.0011663111
0.0011663111
0.0011663116
2.7182778e-06
1.8983819e-06
1.6299463e-06
1.3060661e-05
8.8734436e-06
1.0651693e-05
1.9901132e-05
9.7124097e-06
1.4619857e-05
1.3594337e-05
2.7817133e-05
6.8721583e-06
4.97691e-06
6.057374e-06
9.9433905e-06
2.5103874e-05
0.00013821383
0.001166304
0.001166304
0.0011663086
0.0011663103
0.0011663105
0.0011663105
0.0011663105
0.0011663105
0.0011663105
0.0011663105
0.0011663106
0.0011663106
0.0011663107
0.0011663108
0.0011663109
0.0011663109
0.001166311
0.001166311
0.001166311
0.001166311
0.0011663111
0.0011663111
0.0011663111
0.0011663111
0.0011663111
0.0011663111
0.0011663111
0.0011663111
0.0011663111
0.0011663111
0.0011663111
0.0011663111
0.0011663111
0.0011663111
0.0011663111
0.0011663111
0.0011663111
0.0011663111
0.0011663111
0.0011663111
0.0011663111
0.0011663111
0.0011663111
0.0011663111
0.0011663111
0.0011663111
0.0011663111
0.0011663111
0.0011663111
0.0011663111
0.0011663111
0.0011663111
0.0011663111
0.0011663111
0.0011663111
0.0011663111
0.0011663111
0.0011663111
0.0011663111
0.0011663111
0.0011663111
0.0011663111
0.0011663116
2.1869043e-06
1.5469624e-06
1.35494e-06
1.2502721e-05
7.7038508e-06
1.0513873e-05
1.5042021e-05
7.7382209e-06
1.3856064e-05
1.200092e-05
2.2052339e-05
6.315157e-06
4.4722654e-06
5.3250636e-06
8.5998161e-06
2.131618e-05
0.00011215168
0.0011663044
0.0011663031
0.0011663082
0.0011663103
0.0011663105
0.0011663105
0.0011663105
0.0011663105
0.0011663105
0.0011663105
0.0011663106
0.0011663106
0.0011663107
0.0011663108
0.0011663109
0.0011663109
0.001166311
0.001166311
0.001166311
0.001166311
0.0011663111
0.0011663111
0.0011663111
0.0011663111
0.0011663111
0.0011663111
0.0011663111
0.0011663111
0.0011663111
0.0011663111
0.0011663111
0.0011663111
0.0011663111
0.0011663111
0.0011663111
0.0011663111
0.0011663111
0.0011663111
0.0011663111
0.0011663111
0.0011663111
0.0011663111
0.0011663111
0.0011663111
0.0011663111
0.0011663111
0.0011663111
0.0011663111
0.0011663111
0.0011663111
0.0011663111
0.0011663111
0.0011663111
0.0011663111
0.0011663111
0.0011663111
0.0011663111
0.0011663111
0.0011663111
0.0011663111
0.0011663111
0.0011663111
0.0011663117
1.4703507e-06
1.2323022e-06
1.1306137e-06
9.5081709e-06
6.5694942e-06
8.0129874e-06
1.2222242e-05
6.2021076e-06
1.3090116e-05
1.0475017e-05
1.7526119e-05
5.7974188e-06
4.0173842e-06
4.6907669e-06
7.4788192e-06
1.8256256e-05
9.2676212e-05
0.0010506107
0.0011663021
0.0011663078
0.0011663102
0.0011663105
0.0011663105
0.0011663105
0.0011663105
0.0011663105
0.0011663105
0.0011663106
0.0011663106
0.0011663107
0.0011663108
0.0011663109
0.0011663109
0.001166311
0.001166311
0.001166311
0.001166311
0.0011663111
0.0011663111
0.0011663111
0.0011663111
0.0011663111
0.0011663111
0.0011663111
0.0011663111
0.0011663111
0.0011663111
0.0011663111
0.0011663111
0.0011663111
0.0011663111
0.0011663111
0.0011663111
0.0011663111
0.0011663111
0.0011663111
0.0011663111
0.0011663111
0.0011663111
0.0011663111
0.0011663111
0.0011663111
0.0011663111
0.0011663111
0.0011663111
0.0011663111
0.0011663111
0.0011663111
0.0011663111
0.0011663111
0.0011663111
0.0011663111
0.0011663111
0.0011663111
0.0011663111
0.0011663111
0.0011663111
0.0011663111
0.0011663111
0.0011663117
1.0764373e-06
9.46975e-07
9.3097012e-07
8.6840086e-06
5.6105721e-06
7.6149715e-06
9.5648794e-06
5.4826029e-06
1.1558357e-05
9.2717535e-06
1.463296e-05
5.8485647e-06
3.6350318e-06
4.1688326e-06
6.5779069e-06
1.5861361e-05
7.8447538e-05
0.00085443595
0.001166301
0.0011663074
0.0011663102
0.0011663105
0.0011663105
0.0011663105
0.0011663105
0.0011663105
0.0011663105
0.0011663106
0.0011663106
0.0011663107
0.0011663108
0.0011663109
0.0011663109
0.001166311
0.001166311
0.001166311
0.001166311
0.0011663111
0.0011663111
0.0011663111
0.0011663111
0.0011663111
0.0011663111
0.0011663111
0.0011663111
0.0011663111
0.0011663111
0.0011663111
0.0011663111
0.0011663111
0.0011663111
0.0011663111
0.0011663111
0.0011663111
0.0011663111
0.0011663111
0.0011663111
0.0011663111
0.0011663111
0.0011663111
0.0011663111
0.0011663111
0.0011663111
0.0011663111
0.0011663111
0.0011663111
0.0011663111
0.0011663111
0.0011663111
0.0011663111
0.0011663111
0.0011663111
0.0011663111
0.0011663111
0.0011663111
0.0011663111
0.0011663111
0.0011663111
0.0011663111
0.0011663118
9.9219798e-07
8.4610314e-07
7.4016988e-07
2.3162785e-05
4.6943674e-06
1.436893e-05
6.864155e-06
5.1134579e-06
1.0109344e-05
9.1041704e-06
1.33298e-05
5.2764601e-06
3.3328198e-06
3.7726641e-06
5.8985967e-06
1.4116063e-05
6.8753319e-05
0.00073337148
0.0011663
0.001166307
0.0011663101
0.0011663105
0.0011663105
0.0011663105
0.0011663105
0.0011663105
0.0011663105
0.0011663106
0.0011663106
0.0011663107
0.0011663108
0.0011663109
0.0011663109
0.001166311
0.001166311
0.001166311
0.001166311
0.0011663111
0.0011663111
0.0011663111
0.0011663111
0.0011663111
0.0011663111
0.0011663111
0.0011663111
0.0011663111
0.0011663111
0.0011663111
0.0011663111
0.0011663111
0.0011663111
0.0011663111
0.0011663111
0.0011663111
0.0011663111
0.0011663111
0.0011663111
0.0011663111
0.0011663111
0.0011663111
0.0011663111
0.0011663111
0.0011663111
0.0011663111
0.0011663111
0.0011663111
0.0011663111
0.0011663111
0.0011663111
0.0011663111
0.0011663111
0.0011663111
0.0011663111
0.0011663111
0.0011663111
0.0011663111
0.0011663111
0.0011663111
0.0011663111
0.0011663118
1.1314425e-06
7.129198e-07
6.2552872e-07
2.5366556e-05
3.9307677e-06
8.3363612e-06
5.7502495e-06
5.5197561e-06
8.9391934e-06
9.01499e-06
1.2825661e-05
4.5936585e-06
3.0989045e-06
3.4848583e-06
5.4310296e-06
1.2991392e-05
6.3334154e-05
0.00067842817
0.0011662991
0.0011663067
0.0011663101
0.0011663105
0.0011663105
0.0011663105
0.0011663105
0.0011663105
0.0011663105
0.0011663106
0.0011663107
0.0011663107
0.0011663108
0.0011663109
0.0011663109
0.001166311
0.001166311
0.001166311
0.001166311
0.0011663111
0.0011663111
0.0011663111
0.0011663111
0.0011663111
0.0011663111
0.0011663111
0.0011663111
0.0011663111
0.0011663111
0.0011663111
0.0011663111
0.0011663111
0.0011663111
0.0011663111
0.0011663111
0.0011663111
0.0011663111
0.0011663111
0.0011663111
0.0011663111
0.0011663111
0.0011663111
0.0011663111
0.0011663111
0.0011663111
0.0011663111
0.0011663111
0.0011663111
0.0011663111
0.0011663111
0.0011663111
0.0011663111
0.0011663111
0.0011663111
0.0011663111
0.0011663111
0.0011663111
0.0011663111
0.0011663111
0.0011663111
0.0011663111
0.0011663119
2.6357665e-06
6.6127604e-07
5.5283868e-07
1.1660424e-05
3.5887737e-06
7.0969052e-06
5.1163589e-06
6.4058619e-06
7.4638835e-06
8.8396469e-06
1.3531508e-05
4.1573172e-06
2.9166536e-06
3.2874299e-06
5.1603906e-06
1.2474777e-05
6.2308719e-05
0.00069365608
0.0011662985
0.0011663067
0.0011663101
0.0011663105
0.0011663105
0.0011663105
0.0011663105
0.0011663105
0.0011663105
0.0011663106
0.0011663107
0.0011663107
0.0011663108
0.0011663109
0.0011663109
0.001166311
0.001166311
0.001166311
0.001166311
0.0011663111
0.0011663111
0.0011663111
0.0011663111
0.0011663111
0.0011663111
0.0011663111
0.0011663111
0.0011663111
0.0011663111
0.0011663111
0.0011663111
0.0011663111
0.0011663111
0.0011663111
0.0011663111
0.0011663111
0.0011663111
0.0011663111
0.0011663111
0.0011663111
0.0011663111
0.0011663111
0.0011663111
0.0011663111
0.0011663111
0.0011663111
0.0011663111
0.0011663111
0.0011663111
0.0011663111
0.0011663111
0.0011663111
0.0011663111
0.0011663111
0.0011663111
0.0011663111
0.0011663111
0.0011663111
0.0011663111
0.0011663111
0.0011663111
0.001166312
1.5678556e-06
7.0263527e-07
5.0100436e-07
5.6500422e-06
3.5276907e-06
5.3310639e-06
6.4172172e-06
6.9054649e-06
7.4749712e-06
9.3460909e-06
1.4035022e-05
3.8283134e-06
2.7601342e-06
3.1740469e-06
5.0840627e-06
1.2584656e-05
6.6258716e-05
0.00080478878
0.0011662984
0.0011663068
0.0011663102
0.0011663105
0.0011663105
0.0011663105
0.0011663105
0.0011663105
0.0011663105
0.0011663106
0.0011663107
0.0011663107
0.0011663108
0.0011663109
0.0011663109
0.001166311
0.001166311
0.001166311
0.001166311
0.0011663111
0.0011663111
0.0011663111
0.0011663111
0.0011663111
0.0011663111
0.0011663111
0.0011663111
0.0011663111
0.0011663111
0.0011663111
0.0011663111
0.0011663111
0.0011663111
0.0011663111
0.0011663111
0.0011663111
0.0011663111
0.0011663111
0.0011663111
0.0011663111
0.0011663111
0.0011663111
0.0011663111
0.0011663111
0.0011663111
0.0011663111
0.0011663111
0.0011663111
0.0011663111
0.0011663111
0.0011663111
0.0011663111
0.0011663111
0.0011663111
0.0011663111
0.0011663111
0.0011663111
0.0011663111
0.0011663111
0.0011663111
0.0011663111
0.001166312
1.028711e-06
9.3448068e-07
4.3533753e-07
4.2302057e-06
3.4021152e-06
2.7132577e-06
4.7687727e-06
3.6143702e-06
6.2710978e-06
1.0035529e-05
1.2115091e-05
3.5641084e-06
2.6162598e-06
3.1420864e-06
5.2000387e-06
1.3360626e-05
7.6538336e-05
0.0010886837
0.0011662988
0.0011663073
0.0011663103
0.0011663105
0.0011663105
0.0011663105
0.0011663105
0.0011663105
0.0011663105
0.0011663106
0.0011663107
0.0011663108
0.0011663108
0.0011663109
0.0011663109
0.001166311
0.001166311
0.001166311
0.001166311
0.0011663111
0.0011663111
0.0011663111
0.0011663111
0.0011663111
0.0011663111
0.0011663111
0.0011663111
0.0011663111
0.0011663111
0.0011663111
0.0011663111
0.0011663111
0.0011663111
0.0011663111
0.0011663111
0.0011663111
0.0011663111
0.0011663111
0.0011663111
0.0011663111
0.0011663111
0.0011663111
0.0011663111
0.0011663111
0.0011663111
0.0011663111
0.0011663111
0.0011663111
0.0011663111
0.0011663111
0.0011663111
0.0011663111
0.0011663111
0.0011663111
0.0011663111
0.0011663111
0.0011663111
0.0011663111
0.0011663111
0.0011663111
0.0011663111
0.0011663121
6.8423567e-07
5.7546151e-07
3.9492204e-07
3.3981834e-06
3.4593795e-06
1.8604083e-06
3.6293323e-06
3.4633719e-06
5.2739454e-06
9.5844863e-06
1.0631401e-05
3.5059712e-06
2.5152858e-06
3.1874946e-06
5.498867e-06
1.5043979e-05
9.5358138e-05
0.001166295
0.0011662996
0.0011663078
0.0011663103
0.0011663105
0.0011663105
0.0011663105
0.0011663105
0.0011663105
0.0011663105
0.0011663106
0.0011663107
0.0011663108
0.0011663108
0.0011663109
0.0011663109
0.001166311
0.001166311
0.001166311
0.001166311
0.0011663111
0.0011663111
0.0011663111
0.0011663111
0.0011663111
0.0011663111
0.0011663111
0.0011663111
0.0011663111
0.0011663111
0.0011663111
0.0011663111
0.0011663111
0.0011663111
0.0011663111
0.0011663111
0.0011663111
0.0011663111
0.0011663111
0.0011663111
0.0011663111
0.0011663111
0.0011663111
0.0011663111
0.0011663111
0.0011663111
0.0011663111
0.0011663111
0.0011663111
0.0011663111
0.0011663111
0.0011663111
0.0011663111
0.0011663111
0.0011663111
0.0011663111
0.0011663111
0.0011663111
0.0011663111
0.0011663111
0.0011663111
0.0011663111
0.0011663121
5.7268055e-07
4.5756467e-07
6.5964138e-07
3.7617221e-06
3.3695923e-06
1.7531276e-06
3.6839874e-06
4.0087839e-06
4.5726214e-06
8.7349892e-06
9.405806e-06
3.0317135e-06
2.4604017e-06
3.2874419e-06
5.9274861e-06
1.7656735e-05
0.00012335298
0.0011662937
0.0011663007
0.0011663084
0.0011663104
0.0011663105
0.0011663105
0.0011663105
0.0011663105
0.0011663105
0.0011663106
0.0011663106
0.0011663107
0.0011663108
0.0011663108
0.0011663109
0.0011663109
0.001166311
0.001166311
0.001166311
0.001166311
0.0011663111
0.0011663111
0.0011663111
0.0011663111
0.0011663111
0.0011663111
0.0011663111
0.0011663111
0.0011663111
0.0011663111
0.0011663111
0.0011663111
0.0011663111
0.0011663111
0.0011663111
0.0011663111
0.0011663111
0.0011663111
0.0011663111
0.0011663111
0.0011663111
0.0011663111
0.0011663111
0.0011663111
0.0011663111
0.0011663111
0.0011663111
0.0011663111
0.0011663111
0.0011663111
0.0011663111
0.0011663111
0.0011663111
0.0011663111
0.0011663111
0.0011663111
0.0011663111
0.0011663111
0.0011663111
0.0011663111
0.0011663111
0.0011663111
0.0011663122
3.8994004e-07
7.8182394e-07
4.5021287e-07
3.1415591e-06
2.6204949e-06
1.6901992e-06
4.4471257e-06
4.7988855e-06
4.4037135e-06
8.1513733e-06
8.1100821e-06
2.9010901e-06
2.4301738e-06
3.3986169e-06
6.3311375e-06
2.0155504e-05
0.00015268136
0.0011662934
0.0011663016
0.0011663087
0.0011663104
0.0011663105
0.0011663105
0.0011663105
0.0011663105
0.0011663105
0.0011663106
0.0011663106
0.0011663107
0.0011663108
0.0011663108
0.0011663109
0.0011663109
0.001166311
0.001166311
0.001166311
0.001166311
0.0011663111
0.0011663111
0.0011663111
0.0011663111
0.0011663111
0.0011663111
0.0011663111
0.0011663111
0.0011663111
0.0011663111
0.0011663111
0.0011663111
0.0011663111
0.0011663111
0.0011663111
0.0011663111
0.0011663111
0.0011663111
0.0011663111