/*--------------------------------*- C++ -*----------------------------------*\
| =========                 |                                                 |
| \\      /  F ield         | OpenFOAM: The Open Source CFD Toolbox           |
|  \\    /   O peration     | Version:  2406                                  |
|   \\  /    A nd           | Website:  www.openfoam.com                      |
|    \\/     M anipulation  |                                                 |
\*---------------------------------------------------------------------------*/
FoamFile
{
    version     2.0;
    format      ascii;
    arch        "LSB;label=32;scalar=64";
    class       volScalarField;
    location    "9e-05";
    object      k;
}
// * * * * * * * * * * * * * * * * * * * * * * * * * * * * * * * * * * * * * //

dimensions      [0 2 -2 0 0 0 0];

internalField   nonuniform List<scalar> 
16000
(
0.010851782
0.0099529714
0.010012712
0.010002306
0.01000166
0.010001976
0.01000123
0.010000981
0.010000187
0.0099996605
0.0099992893
0.0099991847
0.0099991817
0.0099991886
0.0099991893
0.0099991929
0.0099991909
0.0099991902
0.00999919
0.00999919
0.00999919
0.00999919
0.00999919
0.00999919
0.00999919
0.00999919
0.00999919
0.00999919
0.00999919
0.00999919
0.00999919
0.00999919
0.00999919
0.00999919
0.00999919
0.00999919
0.00999919
0.00999919
0.00999919
0.00999919
0.00999919
0.00999919
0.00999919
0.00999919
0.00999919
0.00999919
0.00999919
0.00999919
0.00999919
0.00999919
0.00999919
0.00999919
0.00999919
0.00999919
0.00999919
0.00999919
0.00999919
0.00999919
0.00999919
0.00999919
0.00999919
0.00999919
0.00999919
0.00999919
0.00999919
0.00999919
0.00999919
0.00999919
0.00999919
0.00999919
0.00999919
0.00999919
0.00999919
0.00999919
0.00999919
0.00999919
0.00999919
0.00999919
0.00999919
0.0099991901
0.010856715
0.0099754295
0.010003956
0.010004464
0.010001505
0.010001507
0.010001102
0.010000636
0.0099996962
0.0099989841
0.0099987848
0.0099989388
0.0099991009
0.0099991844
0.009999172
0.0099991906
0.0099991918
0.0099991908
0.0099991901
0.00999919
0.00999919
0.00999919
0.00999919
0.00999919
0.00999919
0.00999919
0.00999919
0.00999919
0.00999919
0.00999919
0.00999919
0.00999919
0.00999919
0.00999919
0.00999919
0.00999919
0.00999919
0.00999919
0.00999919
0.00999919
0.00999919
0.00999919
0.00999919
0.00999919
0.00999919
0.00999919
0.00999919
0.00999919
0.00999919
0.00999919
0.00999919
0.00999919
0.00999919
0.00999919
0.00999919
0.00999919
0.00999919
0.00999919
0.00999919
0.00999919
0.00999919
0.00999919
0.00999919
0.00999919
0.00999919
0.00999919
0.00999919
0.00999919
0.00999919
0.00999919
0.00999919
0.00999919
0.00999919
0.00999919
0.00999919
0.00999919
0.00999919
0.00999919
0.00999919
0.0099991903
0.010865238
0.0099961799
0.009986873
0.010011544
0.0099978784
0.010001617
0.0099999945
0.0099995153
0.0099982638
0.0099975291
0.0099973755
0.009998297
0.0099989441
0.009999168
0.0099991618
0.0099991864
0.0099991926
0.0099991917
0.0099991903
0.00999919
0.00999919
0.00999919
0.00999919
0.00999919
0.00999919
0.00999919
0.00999919
0.00999919
0.00999919
0.00999919
0.00999919
0.00999919
0.00999919
0.00999919
0.00999919
0.00999919
0.00999919
0.00999919
0.00999919
0.00999919
0.00999919
0.00999919
0.00999919
0.00999919
0.00999919
0.00999919
0.00999919
0.00999919
0.00999919
0.00999919
0.00999919
0.00999919
0.00999919
0.00999919
0.00999919
0.00999919
0.00999919
0.00999919
0.00999919
0.00999919
0.00999919
0.00999919
0.00999919
0.00999919
0.00999919
0.00999919
0.00999919
0.00999919
0.00999919
0.00999919
0.00999919
0.00999919
0.00999919
0.00999919
0.00999919
0.00999919
0.00999919
0.00999919
0.00999919
0.0099991905
0.010872555
0.010022775
0.0099649567
0.010019327
0.0099921592
0.010002276
0.0099981283
0.0099984001
0.009996566
0.009995684
0.0099955411
0.0099971126
0.0099984267
0.0099991455
0.0099991511
0.0099991857
0.0099991935
0.0099991926
0.0099991906
0.0099991901
0.00999919
0.00999919
0.00999919
0.00999919
0.00999919
0.00999919
0.00999919
0.00999919
0.00999919
0.00999919
0.00999919
0.00999919
0.00999919
0.00999919
0.00999919
0.00999919
0.00999919
0.00999919
0.00999919
0.00999919
0.00999919
0.00999919
0.00999919
0.00999919
0.00999919
0.00999919
0.00999919
0.00999919
0.00999919
0.00999919
0.00999919
0.00999919
0.00999919
0.00999919
0.00999919
0.00999919
0.00999919
0.00999919
0.00999919
0.00999919
0.00999919
0.00999919
0.00999919
0.00999919
0.00999919
0.00999919
0.00999919
0.00999919
0.00999919
0.00999919
0.00999919
0.00999919
0.00999919
0.00999919
0.00999919
0.00999919
0.00999919
0.00999919
0.00999919
0.0099991907
0.010876387
0.010052895
0.0099401625
0.010028908
0.0099849735
0.010003246
0.0099945005
0.0099984859
0.009994552
0.0099938029
0.0099934828
0.0099956159
0.0099976113
0.0099990139
0.0099991376
0.0099991886
0.0099991941
0.0099991938
0.0099991909
0.0099991901
0.00999919
0.00999919
0.00999919
0.00999919
0.00999919
0.00999919
0.00999919
0.00999919
0.00999919
0.00999919
0.00999919
0.00999919
0.00999919
0.00999919
0.00999919
0.00999919
0.00999919
0.00999919
0.00999919
0.00999919
0.00999919
0.00999919
0.00999919
0.00999919
0.00999919
0.00999919
0.00999919
0.00999919
0.00999919
0.00999919
0.00999919
0.00999919
0.00999919
0.00999919
0.00999919
0.00999919
0.00999919
0.00999919
0.00999919
0.00999919
0.00999919
0.00999919
0.00999919
0.00999919
0.00999919
0.00999919
0.00999919
0.00999919
0.00999919
0.00999919
0.00999919
0.00999919
0.00999919
0.00999919
0.00999919
0.00999919
0.00999919
0.00999919
0.00999919
0.0099991908
0.010873578
0.010091425
0.009909622
0.010040189
0.0099785859
0.010002784
0.009991445
0.0099979232
0.0099915219
0.0099928089
0.0099912191
0.0099938681
0.0099965549
0.0099987102
0.0099991226
0.009999191
0.0099991939
0.0099991951
0.0099991914
0.0099991902
0.00999919
0.00999919
0.00999919
0.00999919
0.00999919
0.00999919
0.00999919
0.00999919
0.00999919
0.00999919
0.00999919
0.00999919
0.00999919
0.00999919
0.00999919
0.00999919
0.00999919
0.00999919
0.00999919
0.00999919
0.00999919
0.00999919
0.00999919
0.00999919
0.00999919
0.00999919
0.00999919
0.00999919
0.00999919
0.00999919
0.00999919
0.00999919
0.00999919
0.00999919
0.00999919
0.00999919
0.00999919
0.00999919
0.00999919
0.00999919
0.00999919
0.00999919
0.00999919
0.00999919
0.00999919
0.00999919
0.00999919
0.00999919
0.00999919
0.00999919
0.00999919
0.00999919
0.00999919
0.00999919
0.00999919
0.00999919
0.00999919
0.00999919
0.00999919
0.009999191
0.01086458
0.010138563
0.00987239
0.010053957
0.00997176
0.010001729
0.0099889574
0.0099964513
0.0099885746
0.0099918148
0.0099887865
0.0099918992
0.0099952816
0.0099982531
0.0099990939
0.0099991933
0.0099991929
0.0099991966
0.0099991921
0.0099991903
0.00999919
0.00999919
0.00999919
0.00999919
0.00999919
0.00999919
0.00999919
0.00999919
0.00999919
0.00999919
0.00999919
0.00999919
0.00999919
0.00999919
0.00999919
0.00999919
0.00999919
0.00999919
0.00999919
0.00999919
0.00999919
0.00999919
0.00999919
0.00999919
0.00999919
0.00999919
0.00999919
0.00999919
0.00999919
0.00999919
0.00999919
0.00999919
0.00999919
0.00999919
0.00999919
0.00999919
0.00999919
0.00999919
0.00999919
0.00999919
0.00999919
0.00999919
0.00999919
0.00999919
0.00999919
0.00999919
0.00999919
0.00999919
0.00999919
0.00999919
0.00999919
0.00999919
0.00999919
0.00999919
0.00999919
0.00999919
0.00999919
0.00999919
0.00999919
0.0099991913
0.010847984
0.010196438
0.0098280257
0.01007037
0.0099640535
0.010000964
0.0099869949
0.0099931455
0.0099872422
0.0099896789
0.0099863685
0.0099897196
0.0099937985
0.0099976512
0.009998996
0.0099991954
0.0099991913
0.0099991983
0.0099991929
0.0099991904
0.00999919
0.00999919
0.00999919
0.00999919
0.00999919
0.00999919
0.00999919
0.00999919
0.00999919
0.00999919
0.00999919
0.00999919
0.00999919
0.00999919
0.00999919
0.00999919
0.00999919
0.00999919
0.00999919
0.00999919
0.00999919
0.00999919
0.00999919
0.00999919
0.00999919
0.00999919
0.00999919
0.00999919
0.00999919
0.00999919
0.00999919
0.00999919
0.00999919
0.00999919
0.00999919
0.00999919
0.00999919
0.00999919
0.00999919
0.00999919
0.00999919
0.00999919
0.00999919
0.00999919
0.00999919
0.00999919
0.00999919
0.00999919
0.00999919
0.00999919
0.00999919
0.00999919
0.00999919
0.00999919
0.00999919
0.00999919
0.00999919
0.00999919
0.00999919
0.0099991915
0.010824137
0.010264767
0.0097766675
0.010088859
0.0099565633
0.0099995554
0.0099849444
0.0099900369
0.0099859533
0.0099863216
0.0099844389
0.0099873513
0.0099921108
0.0099969081
0.0099988241
0.0099991977
0.00999919
0.0099992001
0.0099991938
0.0099991906
0.00999919
0.00999919
0.00999919
0.00999919
0.00999919
0.00999919
0.00999919
0.00999919
0.00999919
0.00999919
0.00999919
0.00999919
0.00999919
0.00999919
0.00999919
0.00999919
0.00999919
0.00999919
0.00999919
0.00999919
0.00999919
0.00999919
0.00999919
0.00999919
0.00999919
0.00999919
0.00999919
0.00999919
0.00999919
0.00999919
0.00999919
0.00999919
0.00999919
0.00999919
0.00999919
0.00999919
0.00999919
0.00999919
0.00999919
0.00999919
0.00999919
0.00999919
0.00999919
0.00999919
0.00999919
0.00999919
0.00999919
0.00999919
0.00999919
0.00999919
0.00999919
0.00999919
0.00999919
0.00999919
0.00999919
0.00999919
0.00999919
0.00999919
0.00999919
0.0099991917
0.010792158
0.01034617
0.009716457
0.010109771
0.00994976
0.0099971923
0.0099826945
0.009987582
0.0099842992
0.0099823621
0.0099823742
0.0099848286
0.0099902195
0.0099960261
0.0099985783
0.0099992002
0.0099991899
0.0099992021
0.0099991949
0.0099991908
0.00999919
0.00999919
0.00999919
0.00999919
0.00999919
0.00999919
0.00999919
0.00999919
0.00999919
0.00999919
0.00999919
0.00999919
0.00999919
0.00999919
0.00999919
0.00999919
0.00999919
0.00999919
0.00999919
0.00999919
0.00999919
0.00999919
0.00999919
0.00999919
0.00999919
0.00999919
0.00999919
0.00999919
0.00999919
0.00999919
0.00999919
0.00999919
0.00999919
0.00999919
0.00999919
0.00999919
0.00999919
0.00999919
0.00999919
0.00999919
0.00999919
0.00999919
0.00999919
0.00999919
0.00999919
0.00999919
0.00999919
0.00999919
0.00999919
0.00999919
0.00999919
0.00999919
0.00999919
0.00999919
0.00999919
0.00999919
0.00999919
0.00999919
0.00999919
0.009999192
0.010748407
0.010447925
0.0096424105
0.010134999
0.0099428682
0.009994112
0.0099804374
0.0099849585
0.0099824519
0.0099786234
0.0099796404
0.0099823066
0.0099881161
0.0099949989
0.009998257
0.0099992035
0.0099991897
0.0099992041
0.0099991961
0.0099991911
0.00999919
0.00999919
0.00999919
0.00999919
0.00999919
0.00999919
0.00999919
0.00999919
0.00999919
0.00999919
0.00999919
0.00999919
0.00999919
0.00999919
0.00999919
0.00999919
0.00999919
0.00999919
0.00999919
0.00999919
0.00999919
0.00999919
0.00999919
0.00999919
0.00999919
0.00999919
0.00999919
0.00999919
0.00999919
0.00999919
0.00999919
0.00999919
0.00999919
0.00999919
0.00999919
0.00999919
0.00999919
0.00999919
0.00999919
0.00999919
0.00999919
0.00999919
0.00999919
0.00999919
0.00999919
0.00999919
0.00999919
0.00999919
0.00999919
0.00999919
0.00999919
0.00999919
0.00999919
0.00999919
0.00999919
0.00999919
0.00999919
0.00999919
0.00999919
0.0099991922
0.010690106
0.010574068
0.0095519046
0.010165456
0.0099352209
0.0099900597
0.0099786946
0.0099819751
0.0099805234
0.0099752544
0.0099760567
0.0099797435
0.0099857889
0.0099938165
0.0099978567
0.0099991926
0.0099991891
0.0099992061
0.0099991975
0.0099991914
0.00999919
0.00999919
0.00999919
0.00999919
0.00999919
0.00999919
0.00999919
0.00999919
0.00999919
0.00999919
0.00999919
0.00999919
0.00999919
0.00999919
0.00999919
0.00999919
0.00999919
0.00999919
0.00999919
0.00999919
0.00999919
0.00999919
0.00999919
0.00999919
0.00999919
0.00999919
0.00999919
0.00999919
0.00999919
0.00999919
0.00999919
0.00999919
0.00999919
0.00999919
0.00999919
0.00999919
0.00999919
0.00999919
0.00999919
0.00999919
0.00999919
0.00999919
0.00999919
0.00999919
0.00999919
0.00999919
0.00999919
0.00999919
0.00999919
0.00999919
0.00999919
0.00999919
0.00999919
0.00999919
0.00999919
0.00999919
0.00999919
0.00999919
0.00999919
0.0099991925
0.010621753
0.010718185
0.0094473492
0.010200971
0.0099262786
0.0099852435
0.009977371
0.0099786299
0.0099785248
0.0099718307
0.0099721326
0.0099769851
0.0099832143
0.0099924652
0.0099973716
0.0099991484
0.009999188
0.009999208
0.009999199
0.0099991919
0.0099991901
0.00999919
0.00999919
0.00999919
0.00999919
0.00999919
0.00999919
0.00999919
0.00999919
0.00999919
0.00999919
0.00999919
0.00999919
0.00999919
0.00999919
0.00999919
0.00999919
0.00999919
0.00999919
0.00999919
0.00999919
0.00999919
0.00999919
0.00999919
0.00999919
0.00999919
0.00999919
0.00999919
0.00999919
0.00999919
0.00999919
0.00999919
0.00999919
0.00999919
0.00999919
0.00999919
0.00999919
0.00999919
0.00999919
0.00999919
0.00999919
0.00999919
0.00999919
0.00999919
0.00999919
0.00999919
0.00999919
0.00999919
0.00999919
0.00999919
0.00999919
0.00999919
0.00999919
0.00999919
0.00999919
0.00999919
0.00999919
0.00999919
0.00999919
0.0099991929
0.010546602
0.010877382
0.0093297747
0.010241672
0.0099158518
0.0099799054
0.0099761656
0.0099749278
0.0099764262
0.0099682495
0.0099679777
0.0099739877
0.0099803674
0.0099909269
0.0099967929
0.0099990687
0.0099991866
0.0099992099
0.0099992007
0.0099991924
0.0099991901
0.00999919
0.00999919
0.00999919
0.00999919
0.00999919
0.00999919
0.00999919
0.00999919
0.00999919
0.00999919
0.00999919
0.00999919
0.00999919
0.00999919
0.00999919
0.00999919
0.00999919
0.00999919
0.00999919
0.00999919
0.00999919
0.00999919
0.00999919
0.00999919
0.00999919
0.00999919
0.00999919
0.00999919
0.00999919
0.00999919
0.00999919
0.00999919
0.00999919
0.00999919
0.00999919
0.00999919
0.00999919
0.00999919
0.00999919
0.00999919
0.00999919
0.00999919
0.00999919
0.00999919
0.00999919
0.00999919
0.00999919
0.00999919
0.00999919
0.00999919
0.00999919
0.00999919
0.00999919
0.00999919
0.00999919
0.00999919
0.00999919
0.00999919
0.0099991932
0.010458693
0.011059879
0.0091945116
0.010288978
0.0099036021
0.0099736365
0.0099752293
0.0099707422
0.0099741774
0.0099644419
0.009963621
0.0099707324
0.0099772263
0.0099891817
0.0099961109
0.0099989508
0.0099991847
0.0099992118
0.0099992026
0.009999193
0.0099991902
0.00999919
0.00999919
0.00999919
0.00999919
0.00999919
0.00999919
0.00999919
0.00999919
0.00999919
0.00999919
0.00999919
0.00999919
0.00999919
0.00999919
0.00999919
0.00999919
0.00999919
0.00999919
0.00999919
0.00999919
0.00999919
0.00999919
0.00999919
0.00999919
0.00999919
0.00999919
0.00999919
0.00999919
0.00999919
0.00999919
0.00999919
0.00999919
0.00999919
0.00999919
0.00999919
0.00999919
0.00999919
0.00999919
0.00999919
0.00999919
0.00999919
0.00999919
0.00999919
0.00999919
0.00999919
0.00999919
0.00999919
0.00999919
0.00999919
0.00999919
0.00999919
0.00999919
0.00999919
0.00999919
0.00999919
0.00999919
0.00999919
0.00999919
0.0099991935
0.010356209
0.011270381
0.0090387197
0.010344109
0.0098887877
0.0099665269
0.0099746301
0.0099659036
0.0099716942
0.0099603055
0.0099591376
0.0099670912
0.0099737652
0.0099872096
0.0099953154
0.0099987915
0.0099991826
0.0099992138
0.0099992048
0.0099991937
0.0099991902
0.00999919
0.00999919
0.00999919
0.00999919
0.00999919
0.00999919
0.00999919
0.00999919
0.00999919
0.00999919
0.00999919
0.00999919
0.00999919
0.00999919
0.00999919
0.00999919
0.00999919
0.00999919
0.00999919
0.00999919
0.00999919
0.00999919
0.00999919
0.00999919
0.00999919
0.00999919
0.00999919
0.00999919
0.00999919
0.00999919
0.00999919
0.00999919
0.00999919
0.00999919
0.00999919
0.00999919
0.00999919
0.00999919
0.00999919
0.00999919
0.00999919
0.00999919
0.00999919
0.00999919
0.00999919
0.00999919
0.00999919
0.00999919
0.00999919
0.00999919
0.00999919
0.00999919
0.00999919
0.00999919
0.00999919
0.00999919
0.00999919
0.00999919
0.0099991939
0.010241174
0.011504219
0.0088644948
0.010407711
0.009869687
0.0099585278
0.0099742477
0.0099601768
0.009968921
0.0099556831
0.0099543323
0.0099629935
0.0099699337
0.0099849866
0.009994398
0.0099985883
0.0099991806
0.0099992161
0.0099992071
0.0099991946
0.0099991903
0.00999919
0.00999919
0.00999919
0.00999919
0.00999919
0.00999919
0.00999919
0.00999919
0.00999919
0.00999919
0.00999919
0.00999919
0.00999919
0.00999919
0.00999919
0.00999919
0.00999919
0.00999919
0.00999919
0.00999919
0.00999919
0.00999919
0.00999919
0.00999919
0.00999919
0.00999919
0.00999919
0.00999919
0.00999919
0.00999919
0.00999919
0.00999919
0.00999919
0.00999919
0.00999919
0.00999919
0.00999919
0.00999919
0.00999919
0.00999919
0.00999919
0.00999919
0.00999919
0.00999919
0.00999919
0.00999919
0.00999919
0.00999919
0.00999919
0.00999919
0.00999919
0.00999919
0.00999919
0.00999919
0.00999919
0.00999919
0.00999919
0.00999919
0.0099991943
0.010106799
0.011763714
0.0086698803
0.010479624
0.0098482298
0.0099498121
0.0099744601
0.0099536112
0.0099659266
0.0099504955
0.0099489185
0.0099583428
0.0099656526
0.0099824849
0.009993355
0.0099983414
0.0099991791
0.0099992191
0.0099992096
0.0099991955
0.0099991904
0.0099991899
0.00999919
0.00999919
0.00999919
0.00999919
0.00999919
0.00999919
0.00999919
0.00999919
0.00999919
0.00999919
0.00999919
0.00999919
0.00999919
0.00999919
0.00999919
0.00999919
0.00999919
0.00999919
0.00999919
0.00999919
0.00999919
0.00999919
0.00999919
0.00999919
0.00999919
0.00999919
0.00999919
0.00999919
0.00999919
0.00999919
0.00999919
0.00999919
0.00999919
0.00999919
0.00999919
0.00999919
0.00999919
0.00999919
0.00999919
0.00999919
0.00999919
0.00999919
0.00999919
0.00999919
0.00999919
0.00999919
0.00999919
0.00999919
0.00999919
0.00999919
0.00999919
0.00999919
0.00999919
0.00999919
0.00999919
0.00999919
0.00999919
0.0099991948
0.0099456795
0.012064635
0.0084493663
0.010559602
0.0098249275
0.0099376898
0.0099755993
0.0099461185
0.0099628305
0.0099448952
0.0099429621
0.009953165
0.0099609297
0.0099797182
0.0099922011
0.0099980563
0.0099991789
0.0099992233
0.0099992124
0.0099991965
0.0099991905
0.0099991899
0.00999919
0.00999919
0.00999919
0.00999919
0.00999919
0.00999919
0.00999919
0.00999919
0.00999919
0.00999919
0.00999919
0.00999919
0.00999919
0.00999919
0.00999919
0.00999919
0.00999919
0.00999919
0.00999919
0.00999919
0.00999919
0.00999919
0.00999919
0.00999919
0.00999919
0.00999919
0.00999919
0.00999919
0.00999919
0.00999919
0.00999919
0.00999919
0.00999919
0.00999919
0.00999919
0.00999919
0.00999919
0.00999919
0.00999919
0.00999919
0.00999919
0.00999919
0.00999919
0.00999919
0.00999919
0.00999919
0.00999919
0.00999919
0.00999919
0.00999919
0.00999919
0.00999919
0.00999919
0.00999919
0.00999919
0.00999919
0.00999919
0.0099991952
0.0097506554
0.012452076
0.0081488534
0.010664953
0.0097985192
0.009923179
0.0099785407
0.0099380797
0.0099595488
0.0099389348
0.0099368303
0.0099477712
0.009956018
0.0099768434
0.0099909998
0.0099977517
0.0099991786
0.009999228
0.0099992152
0.0099991976
0.0099991906
0.0099991899
0.00999919
0.00999919
0.00999919
0.00999919
0.00999919
0.00999919
0.00999919
0.00999919
0.00999919
0.00999919
0.00999919
0.00999919
0.00999919
0.00999919
0.00999919
0.00999919
0.00999919
0.00999919
0.00999919
0.00999919
0.00999919
0.00999919
0.00999919
0.00999919
0.00999919
0.00999919
0.00999919
0.00999919
0.00999919
0.00999919
0.00999919
0.00999919
0.00999919
0.00999919
0.00999919
0.00999919
0.00999919
0.00999919
0.00999919
0.00999919
0.00999919
0.00999919
0.00999919
0.00999919
0.00999919
0.00999919
0.00999919
0.00999919
0.00999919
0.00999919
0.00999919
0.00999919
0.00999919
0.00999919
0.00999919
0.00999919
0.00999919
0.0099991957
0.0095635191
0.012886185
0.0078107733
0.010794121
0.0097627086
0.0099030773
0.0099920703
0.0099247593
0.0099562905
0.0099319542
0.0099310743
0.0099427467
0.0099513745
0.0099741652
0.0099898818
0.0099974702
0.0099991728
0.0099992328
0.0099992179
0.0099991985
0.0099991907
0.0099991899
0.00999919
0.00999919
0.00999919
0.00999919
0.00999919
0.00999919
0.00999919
0.00999919
0.00999919
0.00999919
0.00999919
0.00999919
0.00999919
0.00999919
0.00999919
0.00999919
0.00999919
0.00999919
0.00999919
0.00999919
0.00999919
0.00999919
0.00999919
0.00999919
0.00999919
0.00999919
0.00999919
0.00999919
0.00999919
0.00999919
0.00999919
0.00999919
0.00999919
0.00999919
0.00999919
0.00999919
0.00999919
0.00999919
0.00999919
0.00999919
0.00999919
0.00999919
0.00999919
0.00999919
0.00999919
0.00999919
0.00999919
0.00999919
0.00999919
0.00999919
0.00999919
0.00999919
0.00999919
0.00999919
0.00999919
0.00999919
0.00999919
0.0099991962
0.0093701412
0.013277502
0.0075080813
0.010909464
0.0097252338
0.0098861909
0.010002793
0.009912113
0.009953427
0.0099246627
0.0099272929
0.0099384928
0.0099474653
0.0099720445
0.0099890442
0.0099972759
0.0099991694
0.0099992372
0.0099992201
0.009999199
0.0099991907
0.0099991899
0.00999919
0.00999919
0.00999919
0.00999919
0.00999919
0.00999919
0.00999919
0.00999919
0.00999919
0.00999919
0.00999919
0.00999919
0.00999919
0.00999919
0.00999919
0.00999919
0.00999919
0.00999919
0.00999919
0.00999919
0.00999919
0.00999919
0.00999919
0.00999919
0.00999919
0.00999919
0.00999919
0.00999919
0.00999919
0.00999919
0.00999919
0.00999919
0.00999919
0.00999919
0.00999919
0.00999919
0.00999919
0.00999919
0.00999919
0.00999919
0.00999919
0.00999919
0.00999919
0.00999919
0.00999919
0.00999919
0.00999919
0.00999919
0.00999919
0.00999919
0.00999919
0.00999919
0.00999919
0.00999919
0.00999919
0.00999919
0.0099991901
0.0099991967
0.0092132967
0.01358769
0.0072465863
0.011015668
0.0096816692
0.0098777092
0.010006789
0.0099051104
0.0099507847
0.0099180988
0.0099269176
0.0099337411
0.0099447416
0.0099708706
0.0099886887
0.009997236
0.0099991773
0.0099992408
0.0099992212
0.0099991991
0.0099991906
0.0099991899
0.00999919
0.00999919
0.00999919
0.00999919
0.00999919
0.00999919
0.00999919
0.00999919
0.00999919
0.00999919
0.00999919
0.00999919
0.00999919
0.00999919
0.00999919
0.00999919
0.00999919
0.00999919
0.00999919
0.00999919
0.00999919
0.00999919
0.00999919
0.00999919
0.00999919
0.00999919
0.00999919
0.00999919
0.00999919
0.00999919
0.00999919
0.00999919
0.00999919
0.00999919
0.00999919
0.00999919
0.00999919
0.00999919
0.00999919
0.00999919
0.00999919
0.00999919
0.00999919
0.00999919
0.00999919
0.00999919
0.00999919
0.00999919
0.00999919
0.00999919
0.00999919
0.00999919
0.00999919
0.00999919
0.00999919
0.00999919
0.0099991901
0.0099991973
0.0091583415
0.01376222
0.0070432714
0.011129368
0.009634404
0.0098803557
0.01000355
0.0099050781
0.0099474355
0.009921689
0.0099230069
0.0099289369
0.0099435899
0.0099709698
0.0099889553
0.0099973868
0.0099991976
0.0099992429
0.0099992211
0.0099991986
0.0099991905
0.0099991899
0.00999919
0.00999919
0.00999919
0.00999919
0.00999919
0.00999919
0.00999919
0.00999919
0.00999919
0.00999919
0.00999919
0.00999919
0.00999919
0.00999919
0.00999919
0.00999919
0.00999919
0.00999919
0.00999919
0.00999919
0.00999919
0.00999919
0.00999919
0.00999919
0.00999919
0.00999919
0.00999919
0.00999919
0.00999919
0.00999919
0.00999919
0.00999919
0.00999919
0.00999919
0.00999919
0.00999919
0.00999919
0.00999919
0.00999919
0.00999919
0.00999919
0.00999919
0.00999919
0.00999919
0.00999919
0.00999919
0.00999919
0.00999919
0.00999919
0.00999919
0.00999919
0.00999919
0.00999919
0.00999919
0.00999919
0.00999919
0.0099991901
0.0099991978
0.0089904602
0.013963844
0.0068442171
0.011211124
0.0096161548
0.0098961297
0.0099845155
0.0099213892
0.0099405444
0.0099321344
0.0099172924
0.0099250242
0.0099442221
0.0099724088
0.00998982
0.0099977024
0.0099992195
0.0099992431
0.0099992196
0.0099991975
0.0099991904
0.0099991899
0.00999919
0.00999919
0.00999919
0.00999919
0.00999919
0.00999919
0.00999919
0.00999919
0.00999919
0.00999919
0.00999919
0.00999919
0.00999919
0.00999919
0.00999919
0.00999919
0.00999919
0.00999919
0.00999919
0.00999919
0.00999919
0.00999919
0.00999919
0.00999919
0.00999919
0.00999919
0.00999919
0.00999919
0.00999919
0.00999919
0.00999919
0.00999919
0.00999919
0.00999919
0.00999919
0.00999919
0.00999919
0.00999919
0.00999919
0.00999919
0.00999919
0.00999919
0.00999919
0.00999919
0.00999919
0.00999919
0.00999919
0.00999919
0.00999919
0.00999919
0.00999919
0.00999919
0.00999919
0.00999919
0.00999919
0.00999919
0.0099991901
0.0099991983
0.008613884
0.014275106
0.0067039246
0.011163305
0.0096734037
0.0099222784
0.0099541475
0.0099488935
0.0099400403
0.0099282132
0.0099166646
0.0099247367
0.0099465494
0.0099747994
0.0099910646
0.0099980964
0.0099992279
0.0099992423
0.0099992169
0.0099991961
0.0099991902
0.0099991899
0.00999919
0.00999919
0.00999919
0.00999919
0.00999919
0.00999919
0.00999919
0.00999919
0.00999919
0.00999919
0.00999919
0.00999919
0.00999919
0.00999919
0.00999919
0.00999919
0.00999919
0.00999919
0.00999919
0.00999919
0.00999919
0.00999919
0.00999919
0.00999919
0.00999919
0.00999919
0.00999919
0.00999919
0.00999919
0.00999919
0.00999919
0.00999919
0.00999919
0.00999919
0.00999919
0.00999919
0.00999919
0.00999919
0.00999919
0.00999919
0.00999919
0.00999919
0.00999919
0.00999919
0.00999919
0.00999919
0.00999919
0.00999919
0.00999919
0.00999919
0.00999919
0.00999919
0.00999919
0.00999919
0.00999919
0.00999919
0.0099991901
0.0099991987
0.0083830366
0.014408442
0.0067778376
0.010996246
0.0097889241
0.0099483231
0.0099369007
0.0099580118
0.0099470744
0.0099234648
0.009917005
0.0099263956
0.0099498189
0.0099774596
0.0099923386
0.0099984518
0.0099992301
0.0099992413
0.0099992138
0.0099991947
0.0099991901
0.0099991899
0.00999919
0.00999919
0.00999919
0.00999919
0.00999919
0.00999919
0.00999919
0.00999919
0.00999919
0.00999919
0.00999919
0.00999919
0.00999919
0.00999919
0.00999919
0.00999919
0.00999919
0.00999919
0.00999919
0.00999919
0.00999919
0.00999919
0.00999919
0.00999919
0.00999919
0.00999919
0.00999919
0.00999919
0.00999919
0.00999919
0.00999919
0.00999919
0.00999919
0.00999919
0.00999919
0.00999919
0.00999919
0.00999919
0.00999919
0.00999919
0.00999919
0.00999919
0.00999919
0.00999919
0.00999919
0.00999919
0.00999919
0.00999919
0.00999919
0.00999919
0.00999919
0.00999919
0.00999919
0.00999919
0.00999919
0.00999919
0.0099991901
0.0099991991
0.0084834941
0.01397967
0.0071123353
0.010860509
0.0098464473
0.0099818432
0.0099503718
0.0099476436
0.0099501
0.0099229446
0.0099172446
0.0099287845
0.0099527588
0.0099795688
0.0099932679
0.0099986797
0.009999231
0.0099992398
0.0099992113
0.0099991938
0.00999919
0.0099991899
0.00999919
0.00999919
0.00999919
0.00999919
0.00999919
0.00999919
0.00999919
0.00999919
0.00999919
0.00999919
0.00999919
0.00999919
0.00999919
0.00999919
0.00999919
0.00999919
0.00999919
0.00999919
0.00999919
0.00999919
0.00999919
0.00999919
0.00999919
0.00999919
0.00999919
0.00999919
0.00999919
0.00999919
0.00999919
0.00999919
0.00999919
0.00999919
0.00999919
0.00999919
0.00999919
0.00999919
0.00999919
0.00999919
0.00999919
0.00999919
0.00999919
0.00999919
0.00999919
0.00999919
0.00999919
0.00999919
0.00999919
0.00999919
0.00999919
0.00999919
0.00999919
0.00999919
0.00999919
0.00999919
0.00999919
0.00999919
0.0099991901
0.0099991994
0.0086278707
0.013317495
0.0075939445
0.010736731
0.0098898483
0.0099842238
0.0099544781
0.0099467002
0.0099514459
0.0099236076
0.0099169558
0.0099305901
0.0099540596
0.0099803931
0.0099935678
0.0099987387
0.0099992318
0.009999239
0.0099992106
0.0099991935
0.00999919
0.0099991899
0.00999919
0.00999919
0.00999919
0.00999919
0.00999919
0.00999919
0.00999919
0.00999919
0.00999919
0.00999919
0.00999919
0.00999919
0.00999919
0.00999919
0.00999919
0.00999919
0.00999919
0.00999919
0.00999919
0.00999919
0.00999919
0.00999919
0.00999919
0.00999919
0.00999919
0.00999919
0.00999919
0.00999919
0.00999919
0.00999919
0.00999919
0.00999919
0.00999919
0.00999919
0.00999919
0.00999919
0.00999919
0.00999919
0.00999919
0.00999919
0.00999919
0.00999919
0.00999919
0.00999919
0.00999919
0.00999919
0.00999919
0.00999919
0.00999919
0.00999919
0.00999919
0.00999919
0.00999919
0.00999919
0.00999919
0.00999919
0.0099991901
0.0099991995
0.0086989791
0.013142391
0.0078286413
0.010652495
0.0099106343
0.0099765953
0.0099564482
0.0099468592
0.0099528405
0.0099252192
0.0099167949
0.0099302964
0.0099525323
0.0099790616
0.0099928645
0.0099985246
0.0099992331
0.0099992371
0.0099992126
0.0099991946
0.0099991901
0.0099991899
0.00999919
0.00999919
0.00999919
0.00999919
0.00999919
0.00999919
0.00999919
0.00999919
0.00999919
0.00999919
0.00999919
0.00999919
0.00999919
0.00999919
0.00999919
0.00999919
0.00999919
0.00999919
0.00999919
0.00999919
0.00999919
0.00999919
0.00999919
0.00999919
0.00999919
0.00999919
0.00999919
0.00999919
0.00999919
0.00999919
0.00999919
0.00999919
0.00999919
0.00999919
0.00999919
0.00999919
0.00999919
0.00999919
0.00999919
0.00999919
0.00999919
0.00999919
0.00999919
0.00999919
0.00999919
0.00999919
0.00999919
0.00999919
0.00999919
0.00999919
0.00999919
0.00999919
0.00999919
0.00999919
0.00999919
0.00999919
0.0099991901
0.0099991995
0.011266072
0.0093163569
0.010346536
0.0099519006
0.010036245
0.010029444
0.010020803
0.010029269
0.010029891
0.010025463
0.010021117
0.010011763
0.010004721
0.01000097
0.0099994154
0.0099991766
0.0099991803
0.0099991873
0.0099991899
0.0099991901
0.0099991901
0.00999919
0.00999919
0.00999919
0.00999919
0.00999919
0.00999919
0.00999919
0.00999919
0.00999919
0.00999919
0.00999919
0.00999919
0.00999919
0.00999919
0.00999919
0.00999919
0.00999919
0.00999919
0.00999919
0.00999919
0.00999919
0.00999919
0.00999919
0.00999919
0.00999919
0.00999919
0.00999919
0.00999919
0.00999919
0.00999919
0.00999919
0.00999919
0.00999919
0.00999919
0.00999919
0.00999919
0.00999919
0.00999919
0.00999919
0.00999919
0.00999919
0.00999919
0.00999919
0.00999919
0.00999919
0.00999919
0.00999919
0.00999919
0.00999919
0.00999919
0.00999919
0.00999919
0.00999919
0.00999919
0.00999919
0.00999919
0.00999919
0.00999919
0.00999919
0.011276424
0.0093275008
0.010364263
0.0099344438
0.010028498
0.010026885
0.010020962
0.010029542
0.0100307
0.010026728
0.010021597
0.010012455
0.010005357
0.0100013
0.0099995103
0.0099991818
0.0099991789
0.0099991864
0.0099991898
0.0099991901
0.0099991901
0.00999919
0.00999919
0.00999919
0.00999919
0.00999919
0.00999919
0.00999919
0.00999919
0.00999919
0.00999919
0.00999919
0.00999919
0.00999919
0.00999919
0.00999919
0.00999919
0.00999919
0.00999919
0.00999919
0.00999919
0.00999919
0.00999919
0.00999919
0.00999919
0.00999919
0.00999919
0.00999919
0.00999919
0.00999919
0.00999919
0.00999919
0.00999919
0.00999919