/*--------------------------------*- C++ -*----------------------------------*\
| =========                 |                                                 |
| \\      /  F ield         | OpenFOAM: The Open Source CFD Toolbox           |
|  \\    /   O peration     | Version:  2406                                  |
|   \\  /    A nd           | Website:  www.openfoam.com                      |
|    \\/     M anipulation  |                                                 |
\*---------------------------------------------------------------------------*/
FoamFile
{
    version     2.0;
    format      ascii;
    arch        "LSB;label=32;scalar=64";
    class       volScalarField;
    location    "9e-05";
    object      Ma;
}
// * * * * * * * * * * * * * * * * * * * * * * * * * * * * * * * * * * * * * //

dimensions      [0 0 0 0 0 0 0];

internalField   nonuniform List<scalar> 
16000
(
0.058600014
0.058477872
0.058511712
0.058402755
0.05835849
0.058253853
0.058207963
0.058108647
0.058032772
0.057909166
0.057820981
0.05774918
0.057719495
0.057708134
0.057706313
0.057705991
0.05770605
0.057706064
0.057706071
0.057706072
0.057706072
0.057706072
0.057706072
0.057706072
0.057706072
0.057706072
0.057706072
0.057706072
0.057706072
0.057706072
0.057706072
0.057706072
0.057706072
0.057706072
0.057706072
0.057706072
0.057706072
0.057706072
0.057706072
0.057706072
0.057706072
0.057706072
0.057706072
0.057706072
0.057706072
0.057706072
0.057706072
0.057706072
0.057706072
0.057706072
0.057706072
0.057706072
0.057706072
0.057706072
0.057706072
0.057706072
0.057706072
0.057706072
0.057706072
0.057706072
0.057706072
0.057706072
0.057706072
0.057706072
0.057706072
0.057706072
0.057706072
0.057706072
0.057706072
0.057706072
0.057706072
0.057706072
0.057706072
0.057706072
0.057706072
0.057706072
0.057706072
0.057706072
0.057706072
0.057706072
0.058448036
0.05858591
0.058502617
0.058480247
0.05834971
0.058294254
0.058202489
0.058113367
0.058016432
0.057886503
0.05779536
0.05773093
0.057710582
0.057705302
0.057705617
0.057705932
0.057706066
0.057706074
0.057706074
0.057706072
0.057706072
0.057706072
0.057706072
0.057706072
0.057706072
0.057706072
0.057706072
0.057706072
0.057706072
0.057706072
0.057706072
0.057706072
0.057706072
0.057706072
0.057706072
0.057706072
0.057706072
0.057706072
0.057706072
0.057706072
0.057706072
0.057706072
0.057706072
0.057706072
0.057706072
0.057706072
0.057706072
0.057706072
0.057706072
0.057706072
0.057706072
0.057706072
0.057706072
0.057706072
0.057706072
0.057706072
0.057706072
0.057706072
0.057706072
0.057706072
0.057706072
0.057706072
0.057706072
0.057706072
0.057706072
0.057706072
0.057706072
0.057706072
0.057706072
0.057706072
0.057706072
0.057706072
0.057706072
0.057706072
0.057706072
0.057706072
0.057706072
0.057706072
0.057706072
0.057706072
0.058223707
0.058663249
0.058527899
0.058514573
0.058353015
0.058314142
0.058198779
0.058116805
0.058004748
0.05786266
0.057766153
0.057703596
0.057693359
0.057697163
0.057703283
0.057705519
0.057706067
0.057706097
0.057706082
0.057706073
0.057706072
0.057706072
0.057706072
0.057706072
0.057706072
0.057706072
0.057706072
0.057706072
0.057706072
0.057706072
0.057706072
0.057706072
0.057706072
0.057706072
0.057706072
0.057706072
0.057706072
0.057706072
0.057706072
0.057706072
0.057706072
0.057706072
0.057706072
0.057706072
0.057706072
0.057706072
0.057706072
0.057706072
0.057706072
0.057706072
0.057706072
0.057706072
0.057706072
0.057706072
0.057706072
0.057706072
0.057706072
0.057706072
0.057706072
0.057706072
0.057706072
0.057706072
0.057706072
0.057706072
0.057706072
0.057706072
0.057706072
0.057706072
0.057706072
0.057706072
0.057706072
0.057706072
0.057706072
0.057706072
0.057706072
0.057706072
0.057706072
0.057706072
0.057706072
0.057706072
0.057961841
0.058698925
0.058543513
0.058523528
0.058373201
0.058314337
0.058195144
0.058113481
0.057991276
0.057831658
0.057727728
0.057663836
0.057666742
0.05768432
0.057699481
0.057704799
0.057706058
0.057706127
0.057706094
0.057706074
0.057706072
0.057706071
0.057706072
0.057706072
0.057706072
0.057706072
0.057706072
0.057706072
0.057706072
0.057706072
0.057706072
0.057706072
0.057706072
0.057706072
0.057706072
0.057706072
0.057706072
0.057706072
0.057706072
0.057706072
0.057706072
0.057706072
0.057706072
0.057706072
0.057706072
0.057706072
0.057706072
0.057706072
0.057706072
0.057706072
0.057706072
0.057706072
0.057706072
0.057706072
0.057706072
0.057706072
0.057706072
0.057706072
0.057706072
0.057706072
0.057706072
0.057706072
0.057706072
0.057706072
0.057706072
0.057706072
0.057706072
0.057706072
0.057706072
0.057706072
0.057706072
0.057706072
0.057706072
0.057706072
0.057706072
0.057706072
0.057706072
0.057706072
0.057706072
0.057706072
0.057554229
0.058737789
0.058553451
0.058539881
0.058393928
0.058307893
0.058196469
0.058105219
0.057980429
0.057793179
0.057681026
0.057613398
0.057630487
0.05766588
0.057693642
0.057703606
0.057706009
0.057706166
0.057706112
0.057706077
0.057706072
0.057706071
0.057706072
0.057706072
0.057706072
0.057706072
0.057706072
0.057706072
0.057706072
0.057706072
0.057706072
0.057706072
0.057706072
0.057706072
0.057706072
0.057706072
0.057706072
0.057706072
0.057706072
0.057706072
0.057706072
0.057706072
0.057706072
0.057706072
0.057706072
0.057706072
0.057706072
0.057706072
0.057706072
0.057706072
0.057706072
0.057706072
0.057706072
0.057706072
0.057706072
0.057706072
0.057706072
0.057706072
0.057706072
0.057706072
0.057706072
0.057706072
0.057706072
0.057706072
0.057706072
0.057706072
0.057706072
0.057706072
0.057706072
0.057706072
0.057706072
0.057706072
0.057706072
0.057706072
0.057706072
0.057706072
0.057706072
0.057706072
0.057706072
0.057706072
0.057133781
0.058815474
0.058553823
0.058571615
0.058410556
0.058301504
0.058197336
0.058096137
0.057966287
0.057752963
0.057626411
0.057551202
0.057582614
0.057640144
0.057684991
0.05770169
0.057705883
0.057706213
0.057706138
0.057706081
0.057706072
0.057706071
0.057706072
0.057706072
0.057706072
0.057706072
0.057706072
0.057706072
0.057706072
0.057706072
0.057706072
0.057706072
0.057706072
0.057706072
0.057706072
0.057706072
0.057706072
0.057706072
0.057706072
0.057706072
0.057706072
0.057706072
0.057706072
0.057706072
0.057706072
0.057706072
0.057706072
0.057706072
0.057706072
0.057706072
0.057706072
0.057706072
0.057706072
0.057706072
0.057706072
0.057706072
0.057706072
0.057706072
0.057706072
0.057706072
0.057706072
0.057706072
0.057706072
0.057706072
0.057706072
0.057706072
0.057706072
0.057706072
0.057706072
0.057706072
0.057706072
0.057706072
0.057706072
0.057706072
0.057706072
0.057706072
0.057706072
0.057706072
0.057706072
0.057706072
0.056702197
0.058913384
0.058548115
0.058616276
0.058420864
0.058304948
0.058189695
0.058084396
0.057939338
0.05771191
0.057562335
0.057476042
0.057521364
0.057605434
0.057672686
0.057698775
0.057705633
0.057706268
0.057706173
0.057706088
0.057706072
0.057706071
0.057706071
0.057706072
0.057706072
0.057706072
0.057706072
0.057706072
0.057706072
0.057706072
0.057706072
0.057706072
0.057706072
0.057706072
0.057706072
0.057706072
0.057706072
0.057706072
0.057706072
0.057706072
0.057706072
0.057706072
0.057706072
0.057706072
0.057706072
0.057706072
0.057706072
0.057706072
0.057706072
0.057706072
0.057706072
0.057706072
0.057706072
0.057706072
0.057706072
0.057706072
0.057706072
0.057706072
0.057706072
0.057706072
0.057706072
0.057706072
0.057706072
0.057706072
0.057706072
0.057706072
0.057706072
0.057706072
0.057706072
0.057706072
0.057706072
0.057706072
0.057706072
0.057706072
0.057706072
0.057706072
0.057706072
0.057706072
0.057706072
0.057706072
0.05630489
0.059035866
0.058533198
0.058670926
0.058428229
0.058308367
0.058173926
0.058068164
0.057907893
0.057664845
0.057486835
0.057386273
0.057444839
0.057560011
0.057655807
0.057694542
0.057705198
0.057706328
0.05770622
0.057706098
0.057706073
0.057706071
0.057706071
0.057706072
0.057706072
0.057706072
0.057706072
0.057706072
0.057706072
0.057706072
0.057706072
0.057706072
0.057706072
0.057706072
0.057706072
0.057706072
0.057706072
0.057706072
0.057706072
0.057706072
0.057706072
0.057706072
0.057706072
0.057706072
0.057706072
0.057706072
0.057706072
0.057706072
0.057706072
0.057706072
0.057706072
0.057706072
0.057706072
0.057706072
0.057706072
0.057706072
0.057706072
0.057706072
0.057706072
0.057706072
0.057706072
0.057706072
0.057706072
0.057706072
0.057706072
0.057706072
0.057706072
0.057706072
0.057706072
0.057706072
0.057706072
0.057706072
0.057706072
0.057706072
0.057706072
0.057706072
0.057706072
0.057706072
0.057706072
0.057706072
0.055992017
0.059189863
0.058506869
0.05874178
0.058434825
0.058310055
0.058152136
0.058046497
0.057874447
0.057607332
0.057402341
0.057281102
0.057351133
0.057501925
0.057633274
0.057688605
0.057704502
0.057706388
0.057706281
0.057706113
0.057706074
0.057706071
0.057706071
0.057706072
0.057706072
0.057706072
0.057706072
0.057706072
0.057706072
0.057706072
0.057706072
0.057706072
0.057706072
0.057706072
0.057706072
0.057706072
0.057706072
0.057706072
0.057706072
0.057706072
0.057706072
0.057706072
0.057706072
0.057706072
0.057706072
0.057706072
0.057706072
0.057706072
0.057706072
0.057706072
0.057706072
0.057706072
0.057706072
0.057706072
0.057706072
0.057706072
0.057706072
0.057706072
0.057706072
0.057706072
0.057706072
0.057706072
0.057706072
0.057706072
0.057706072
0.057706072
0.057706072
0.057706072
0.057706072
0.057706072
0.057706072
0.057706072
0.057706072
0.057706072
0.057706072
0.057706072
0.057706072
0.057706072
0.057706072
0.057706072
0.055824638
0.059387166
0.058461848
0.058834179
0.058439807
0.058315591
0.058125848
0.058022605
0.057837235
0.057536883
0.057305802
0.057158414
0.057237879
0.057428875
0.057603777
0.057680484
0.057703447
0.05770644
0.057706358
0.057706133
0.057706076
0.05770607
0.057706071
0.057706072
0.057706072
0.057706072
0.057706072
0.057706072
0.057706072
0.057706072
0.057706072
0.057706072
0.057706072
0.057706072
0.057706072
0.057706072
0.057706072
0.057706072
0.057706072
0.057706072
0.057706072
0.057706072
0.057706072
0.057706072
0.057706072
0.057706072
0.057706072
0.057706072
0.057706072
0.057706072
0.057706072
0.057706072
0.057706072
0.057706072
0.057706072
0.057706072
0.057706072
0.057706072
0.057706072
0.057706072
0.057706072
0.057706072
0.057706072
0.057706072
0.057706072
0.057706072
0.057706072
0.057706072
0.057706072
0.057706072
0.057706072
0.057706072
0.057706072
0.057706072
0.057706072
0.057706072
0.057706072
0.057706072
0.057706072
0.057706072
0.055912142
0.0596476
0.058395225
0.058954362
0.058444818
0.058331117
0.05809624
0.057998085
0.0577932
0.05745249
0.057195144
0.057016585
0.057102024
0.057337939
0.057565697
0.057669581
0.057701906
0.057706473
0.057706454
0.05770616
0.057706079
0.05770607
0.057706071
0.057706072
0.057706072
0.057706072
0.057706072
0.057706072
0.057706072
0.057706072
0.057706072
0.057706072
0.057706072
0.057706072
0.057706072
0.057706072
0.057706072
0.057706072
0.057706072
0.057706072
0.057706072
0.057706072
0.057706072
0.057706072
0.057706072
0.057706072
0.057706072
0.057706072
0.057706072
0.057706072
0.057706072
0.057706072
0.057706072
0.057706072
0.057706072
0.057706072
0.057706072
0.057706072
0.057706072
0.057706072
0.057706072
0.057706072
0.057706072
0.057706072
0.057706072
0.057706072
0.057706072
0.057706072
0.057706072
0.057706072
0.057706072
0.057706072
0.057706072
0.057706072
0.057706072
0.057706072
0.057706072
0.057706072
0.057706072
0.057706072
0.05639982
0.059967615
0.058321361
0.059095222
0.058463278
0.058348856
0.058062608
0.057967533
0.057739265
0.057359645
0.057066208
0.056852254
0.056939665
0.057225392
0.057516949
0.057655124
0.057699715
0.057706473
0.057706573
0.057706196
0.057706083
0.05770607
0.057706071
0.057706072
0.057706072
0.057706072
0.057706072
0.057706072
0.057706072
0.057706072
0.057706072
0.057706072
0.057706072
0.057706072
0.057706072
0.057706072
0.057706072
0.057706072
0.057706072
0.057706072
0.057706072
0.057706072
0.057706072
0.057706072
0.057706072
0.057706072
0.057706072
0.057706072
0.057706072
0.057706072
0.057706072
0.057706072
0.057706072
0.057706072
0.057706072
0.057706072
0.057706072
0.057706072
0.057706072
0.057706072
0.057706072
0.057706072
0.057706072
0.057706072
0.057706072
0.057706072
0.057706072
0.057706072
0.057706072
0.057706072
0.057706072
0.057706072
0.057706072
0.057706072
0.057706072
0.057706072
0.057706072
0.057706072
0.057706072
0.057706072
0.05729537
0.060327989
0.058255525
0.059248379
0.058504748
0.05836301
0.058027225
0.057927883
0.057673575
0.057254101
0.056917065
0.056660614
0.056745368
0.057086437
0.057454849
0.057636113
0.057696658
0.057706418
0.057706719
0.057706243
0.05770609
0.057706069
0.057706071
0.057706071
0.057706072
0.057706072
0.057706072
0.057706072
0.057706072
0.057706072
0.057706072
0.057706072
0.057706072
0.057706072
0.057706072
0.057706072
0.057706072
0.057706072
0.057706072
0.057706072
0.057706072
0.057706072
0.057706072
0.057706072
0.057706072
0.057706072
0.057706072
0.057706072
0.057706072
0.057706072
0.057706072
0.057706072
0.057706072
0.057706072
0.057706072
0.057706072
0.057706072
0.057706072
0.057706072
0.057706072
0.057706072
0.057706072
0.057706072
0.057706072
0.057706072
0.057706072
0.057706072
0.057706072
0.057706072
0.057706072
0.057706072
0.057706072
0.057706072
0.057706072
0.057706072
0.057706072
0.057706072
0.057706072
0.057706072
0.057706072
0.058519411
0.060781711
0.058183492
0.059444893
0.058560445
0.058389997
0.057991109
0.05788021
0.057592659
0.057129972
0.056742343
0.056435312
0.056511896
0.056914688
0.057375851
0.057611222
0.057692442
0.057706278
0.057706899
0.057706305
0.057706099
0.057706069
0.05770607
0.057706071
0.057706072
0.057706072
0.057706072
0.057706072
0.057706072
0.057706072
0.057706072
0.057706072
0.057706072
0.057706072
0.057706072
0.057706072
0.057706072
0.057706072
0.057706072
0.057706072
0.057706072
0.057706072
0.057706072
0.057706072
0.057706072
0.057706072
0.057706072
0.057706072
0.057706072
0.057706072
0.057706072
0.057706072
0.057706072
0.057706072
0.057706072
0.057706072
0.057706072
0.057706072
0.057706072
0.057706072
0.057706072
0.057706072
0.057706072
0.057706072
0.057706072
0.057706072
0.057706072
0.057706072
0.057706072
0.057706072
0.057706072
0.057706072
0.057706072
0.057706072
0.057706072
0.057706072
0.057706072
0.057706072
0.057706072
0.057706072
0.060247793
0.06137488
0.058081902
0.059711118
0.058625161
0.058446418
0.057954082
0.057826217
0.05749323
0.056982581
0.056535271
0.056167882
0.056229684
0.05670174
0.057275276
0.057578696
0.057686681
0.057706014
0.05770712
0.057706384
0.057706111
0.057706069
0.05770607
0.057706071
0.057706072
0.057706072
0.057706072
0.057706072
0.057706072
0.057706072
0.057706072
0.057706072
0.057706072
0.057706072
0.057706072
0.057706072
0.057706072
0.057706072
0.057706072
0.057706072
0.057706072
0.057706072
0.057706072
0.057706072
0.057706072
0.057706072
0.057706072
0.057706072
0.057706072
0.057706072
0.057706072
0.057706072
0.057706072
0.057706072
0.057706072
0.057706072
0.057706072
0.057706072
0.057706072
0.057706072
0.057706072
0.057706072
0.057706072
0.057706072
0.057706072
0.057706072
0.057706072
0.057706072
0.057706072
0.057706072
0.057706072
0.057706072
0.057706072
0.057706072
0.057706072
0.057706072
0.057706072
0.057706072
0.057706072
0.057706072
0.062665522
0.062134136
0.058013407
0.060062715
0.058742377
0.058539942
0.057926236
0.057771684
0.057379209
0.056815089
0.056292926
0.055848745
0.05588633
0.056436618
0.057147012
0.057536248
0.057678863
0.057705569
0.057707389
0.057706487
0.057706128
0.057706068
0.057706069
0.057706071
0.057706072
0.057706072
0.057706072
0.057706072
0.057706072
0.057706072
0.057706072
0.057706072
0.057706072
0.057706072
0.057706072
0.057706072
0.057706072
0.057706072
0.057706072
0.057706072
0.057706072
0.057706072
0.057706072
0.057706072
0.057706072
0.057706072
0.057706072
0.057706072
0.057706072
0.057706072
0.057706072
0.057706072
0.057706072
0.057706072
0.057706072
0.057706072
0.057706072
0.057706072
0.057706072
0.057706072
0.057706072
0.057706072
0.057706072
0.057706072
0.057706072
0.057706072
0.057706072
0.057706072
0.057706072
0.057706072
0.057706072
0.057706072
0.057706072
0.057706072
0.057706072
0.057706072
0.057706072
0.057706072
0.057706072
0.057706072
0.065750501
0.063032887
0.057930659
0.06048924
0.058902024
0.058666628
0.05792028
0.057727184
0.057263501
0.056636479
0.056017223
0.055467215
0.055464947
0.056104654
0.056983156
0.057481009
0.057668359
0.057704879
0.057707717
0.057706619
0.05770615
0.057706068
0.057706069
0.057706071
0.057706072
0.057706072
0.057706072
0.057706072
0.057706072
0.057706072
0.057706072
0.057706072
0.057706072
0.057706072
0.057706072
0.057706072
0.057706072
0.057706072
0.057706072
0.057706072
0.057706072
0.057706072
0.057706072
0.057706072
0.057706072
0.057706072
0.057706072
0.057706072
0.057706072
0.057706072
0.057706072
0.057706072
0.057706072
0.057706072
0.057706072
0.057706072
0.057706072
0.057706072
0.057706072
0.057706072
0.057706072
0.057706072
0.057706072
0.057706072
0.057706072
0.057706072
0.057706072
0.057706072
0.057706072
0.057706072
0.057706072
0.057706072
0.057706072
0.057706072
0.057706072
0.057706072
0.057706072
0.057706072
0.057706072
0.057706072
0.069696711
0.064239438
0.057961525
0.061108426
0.059212343
0.058864556
0.057954963
0.057680166
0.057136736
0.056433516
0.055688293
0.054998283
0.054937007
0.055684868
0.056773509
0.057409614
0.057654495
0.057703883
0.057708118
0.057706787
0.057706179
0.057706069
0.057706068
0.057706071
0.057706072
0.057706072
0.057706072
0.057706072
0.057706072
0.057706072
0.057706072
0.057706072
0.057706072
0.057706072
0.057706072
0.057706072
0.057706072
0.057706072
0.057706072
0.057706072
0.057706072
0.057706072
0.057706072
0.057706072
0.057706072
0.057706072
0.057706072
0.057706072
0.057706072
0.057706072
0.057706072
0.057706072
0.057706072
0.057706072
0.057706072
0.057706072
0.057706072
0.057706072
0.057706072
0.057706072
0.057706072
0.057706072
0.057706072
0.057706072
0.057706072
0.057706072
0.057706072
0.057706072
0.057706072
0.057706072
0.057706072
0.057706072
0.057706072
0.057706072
0.057706072
0.057706072
0.057706072
0.057706072
0.057706072
0.057706072
0.074520069
0.065901608
0.057881754
0.061809886
0.059529769
0.058974084
0.057950681
0.057591234
0.056950339
0.056131011
0.055225607
0.054375575
0.054253829
0.055148199
0.056505951
0.057318665
0.057636713
0.057702564
0.057708614
0.057706997
0.057706217
0.057706069
0.057706067
0.057706071
0.057706072
0.057706072
0.057706072
0.057706072
0.057706072
0.057706072
0.057706072
0.057706072
0.057706072
0.057706072
0.057706072
0.057706072
0.057706072
0.057706072
0.057706072
0.057706072
0.057706072
0.057706072
0.057706072
0.057706072
0.057706072
0.057706072
0.057706072
0.057706072
0.057706072
0.057706072
0.057706072
0.057706072
0.057706072
0.057706072
0.057706072
0.057706072
0.057706072
0.057706072
0.057706072
0.057706072
0.057706072
0.057706072
0.057706072
0.057706072
0.057706072
0.057706072
0.057706072
0.057706072
0.057706072
0.057706072
0.057706072
0.057706072
0.057706072
0.057706072
0.057706072
0.057706072
0.057706072
0.057706072
0.057706072
0.057706072
0.081540993
0.067994719
0.057488087
0.06280753
0.059809738
0.059395828
0.057897943
0.057484755
0.056603393
0.055561925
0.05448947
0.053486395
0.053353129
0.054463128
0.056170794
0.057206102
0.05761488
0.05770097
0.057709221
0.05770725
0.057706261
0.057706069
0.057706066
0.05770607
0.057706072
0.057706072
0.057706072
0.057706072
0.057706072
0.057706072
0.057706072
0.057706072
0.057706072
0.057706072
0.057706072
0.057706072
0.057706072
0.057706072
0.057706072
0.057706072
0.057706072
0.057706072
0.057706072
0.057706072
0.057706072
0.057706072
0.057706072
0.057706072
0.057706072
0.057706072
0.057706072
0.057706072
0.057706072
0.057706072
0.057706072
0.057706072
0.057706072
0.057706072
0.057706072
0.057706072
0.057706072
0.057706072
0.057706072
0.057706072
0.057706072
0.057706072
0.057706072
0.057706072
0.057706072
0.057706072
0.057706072
0.057706072
0.057706072
0.057706072
0.057706072
0.057706072
0.057706072
0.057706072
0.057706072
0.057706072
0.090749766
0.069908426
0.057564379
0.063903388
0.060424569
0.05974847
0.057691393
0.056969729
0.055847165
0.054576992
0.05333472
0.052232176
0.052174662
0.053609884
0.055768839
0.057074203
0.057589993
0.057699283
0.057709947
0.057707536
0.057706308
0.057706069
0.057706065
0.05770607
0.057706072
0.057706072
0.057706072
0.057706072
0.057706072
0.057706072
0.057706072
0.057706072
0.057706072
0.057706072
0.057706072
0.057706072
0.057706072
0.057706072
0.057706072
0.057706072
0.057706072
0.057706072
0.057706072
0.057706072
0.057706072
0.057706072
0.057706072
0.057706072
0.057706072
0.057706072
0.057706072
0.057706072
0.057706072
0.057706072
0.057706072
0.057706072
0.057706072
0.057706072
0.057706072
0.057706072
0.057706072
0.057706072
0.057706072
0.057706072
0.057706072
0.057706072
0.057706072
0.057706072
0.057706072
0.057706072
0.057706072
0.057706072
0.057706072
0.057706072
0.057706072
0.057706072
0.057706072
0.057706072
0.057706072
0.057706072
0.10045784
0.070901329
0.058218765
0.064360256
0.061056727
0.059190428
0.057040462
0.055887076
0.054641534
0.053114831
0.051655667
0.050520653
0.050664555
0.052591726
0.055319713
0.056934306
0.057565332
0.057697982
0.057710775
0.057707828
0.057706353
0.057706069
0.057706063
0.05770607
0.057706072
0.057706072
0.057706072
0.057706072
0.057706072
0.057706072
0.057706072
0.057706072
0.057706072
0.057706072
0.057706072
0.057706072
0.057706072
0.057706072
0.057706072
0.057706072
0.057706072
0.057706072
0.057706072
0.057706072
0.057706072
0.057706072
0.057706072
0.057706072
0.057706072
0.057706072
0.057706072
0.057706072
0.057706072
0.057706072
0.057706072
0.057706072
0.057706072
0.057706072
0.057706072
0.057706072
0.057706072
0.057706072
0.057706072
0.057706072
0.057706072
0.057706072
0.057706072
0.057706072
0.057706072
0.057706072
0.057706072
0.057706072
0.057706072
0.057706072
0.057706072
0.057706072
0.057706072
0.057706072
0.057706072
0.057706072
0.10899682
0.070381081
0.05899114
0.063828107
0.06136576
0.057904725
0.055723144
0.054224764
0.052797211
0.050881555
0.049359008
0.048222781
0.048793159
0.051452804
0.054872184
0.056808505
0.057546641
0.057697785
0.057711652
0.05770808
0.057706382
0.057706066
0.057706062
0.05770607
0.057706072
0.057706072
0.057706072
0.057706072
0.057706072
0.057706072
0.057706072
0.057706072
0.057706072
0.057706072
0.057706072
0.057706072
0.057706072
0.057706072
0.057706072
0.057706072
0.057706072
0.057706072
0.057706072
0.057706072
0.057706072
0.057706072
0.057706072
0.057706072
0.057706072
0.057706072
0.057706072
0.057706072
0.057706072
0.057706072
0.057706072
0.057706072
0.057706072
0.057706072
0.057706072
0.057706072
0.057706072
0.057706072
0.057706072
0.057706072
0.057706072
0.057706072
0.057706072
0.057706072
0.057706072
0.057706072
0.057706072
0.057706072
0.057706072
0.057706072
0.057706072
0.057706072
0.057706072
0.057706072
0.057706072
0.057706072
0.11200202
0.06891697
0.058177069
0.062085497
0.060526838
0.055580203
0.053231953
0.051723701
0.049857955
0.047752805
0.046311856
0.045250614
0.046623242
0.050312573
0.054503787
0.05672539
0.057540141
0.05769929
0.057712468
0.057708233
0.057706387
0.057706062
0.057706061
0.05770607
0.057706072
0.057706072
0.057706072
0.057706072
0.057706072
0.057706072
0.057706072
0.057706072
0.057706072
0.057706072
0.057706072
0.057706072
0.057706072
0.057706072
0.057706072
0.057706072
0.057706072
0.057706072
0.057706072
0.057706072
0.057706072
0.057706072
0.057706072
0.057706072
0.057706072
0.057706072
0.057706072
0.057706072
0.057706072
0.057706072
0.057706072
0.057706072
0.057706072
0.057706072
0.057706072
0.057706072
0.057706072
0.057706072
0.057706072
0.057706072
0.057706072
0.057706072
0.057706072
0.057706072
0.057706072
0.057706072
0.057706072
0.057706072
0.057706072
0.057706072
0.057706072
0.057706072
0.057706072
0.057706072
0.057706072
0.057706072
0.1121965
0.068402249
0.054878326
0.059368874
0.05777392
0.052117365
0.04888232
0.048314238
0.045742225
0.043931142
0.042359888
0.04164071
0.044362665
0.049349796
0.054293616
0.056706648
0.057548986
0.057702443
0.057713068
0.057708241
0.057706361
0.057706057
0.057706061
0.05770607
0.057706072
0.057706072
0.057706072
0.057706072
0.057706072
0.057706072
0.057706072
0.057706072
0.057706072
0.057706072
0.057706072
0.057706072
0.057706072
0.057706072
0.057706072
0.057706072
0.057706072
0.057706072
0.057706072
0.057706072
0.057706072
0.057706072
0.057706072
0.057706072
0.057706072
0.057706072
0.057706072
0.057706072
0.057706072
0.057706072
0.057706072
0.057706072
0.057706072
0.057706072
0.057706072
0.057706072
0.057706072
0.057706072
0.057706072
0.057706072
0.057706072
0.057706072
0.057706072
0.057706072
0.057706072
0.057706072
0.057706072
0.057706072
0.057706072
0.057706072
0.057706072
0.057706072
0.057706072
0.057706072
0.057706072
0.057706072
0.11470342
0.063390342
0.051383434
0.054871557
0.053577505
0.048043214
0.042691253
0.044109303
0.040816763
0.039424779
0.037571916
0.037695103
0.04234891
0.048735223
0.054278523
0.05675389
0.057570628
0.057706439
0.057713312
0.057708097
0.057706311
0.057706051
0.057706062
0.05770607
0.057706072
0.057706072
0.057706072
0.057706072
0.057706072
0.057706072
0.057706072
0.057706072
0.057706072
0.057706072
0.057706072
0.057706072
0.057706072
0.057706072
0.057706072
0.057706072
0.057706072
0.057706072
0.057706072
0.057706072
0.057706072
0.057706072
0.057706072
0.057706072
0.057706072
0.057706072
0.057706072
0.057706072
0.057706072
0.057706072
0.057706072
0.057706072
0.057706072
0.057706072
0.057706072
0.057706072
0.057706072
0.057706072
0.057706072
0.057706072
0.057706072
0.057706072
0.057706072
0.057706072
0.057706072
0.057706072
0.057706072
0.057706072
0.057706072
0.057706072
0.057706072
0.057706072
0.057706072
0.057706072
0.057706072
0.057706072
0.10935557
0.047551134
0.047211251
0.047639016
0.047462324
0.043554845
0.035929874
0.039656197
0.035601306
0.034305676
0.032479347
0.033873205
0.040864249
0.048498024
0.054406723
0.056837676
0.057596015
0.057709989
0.057713204
0.057707869
0.057706257
0.057706048
0.057706062
0.05770607
0.057706072
0.057706072
0.057706072
0.057706072
0.057706072
0.057706072
0.057706072
0.057706072
0.057706072
0.057706072
0.057706072
0.057706072
0.057706072
0.057706072
0.057706072
0.057706072
0.057706072
0.057706072
0.057706072
0.057706072
0.057706072
0.057706072
0.057706072
0.057706072
0.057706072
0.057706072
0.057706072
0.057706072
0.057706072
0.057706072
0.057706072
0.057706072
0.057706072
0.057706072
0.057706072
0.057706072
0.057706072
0.057706072
0.057706072
0.057706072
0.057706072
0.057706072
0.057706072
0.057706072
0.057706072
0.057706072
0.057706072
0.057706072
0.057706072
0.057706072
0.057706072
0.057706072
0.057706072
0.057706072
0.057706072
0.057706072
0.087482531
0.031477366
0.038484867
0.040303737
0.037517317
0.038398439
0.029460062
0.03550221
0.030661249
0.029024381
0.027742342
0.030524197
0.039893338
0.048429205
0.054540317
0.05690634
0.057614188
0.057712154
0.05771297
0.057707679
0.057706218
0.057706047
0.057706063
0.057706071
0.057706072
0.057706072
0.057706072
0.057706072
0.057706072
0.057706072
0.057706072
0.057706072
0.057706072
0.057706072
0.057706072
0.057706072
0.057706072
0.057706072
0.057706072
0.057706072
0.057706072
0.057706072
0.057706072
0.057706072
0.057706072
0.057706072
0.057706072
0.057706072
0.057706072
0.057706072
0.057706072
0.057706072
0.057706072
0.057706072
0.057706072
0.057706072
0.057706072
0.057706072
0.057706072
0.057706072
0.057706072
0.057706072
0.057706072
0.057706072
0.057706072
0.057706072
0.057706072
0.057706072
0.057706072
0.057706072
0.057706072
0.057706072
0.057706072
0.057706072
0.057706072
0.057706072
0.057706072
0.057706072
0.057706072
0.057706072
0.063913788
0.025183197
0.026807828
0.033687316
0.023018543
0.0328423
0.024239587
0.032247672
0.026437428
0.024346057
0.024050121
0.027786113
0.039063254
0.048178642
0.054514442
0.056907766
0.057616472
0.057712699
0.057713009
0.057707662
0.057706212
0.057706046
0.057706063
0.057706071
0.057706072
0.057706072
0.057706072
0.057706072
0.057706072
0.057706072
0.057706072
0.057706072
0.057706072
0.057706072
0.057706072
0.057706072
0.057706072
0.057706072
0.057706072
0.057706072
0.057706072
0.057706072
0.057706072
0.057706072
0.057706072
0.057706072
0.057706072
0.057706072
0.057706072
0.057706072
0.057706072
0.057706072
0.057706072
0.057706072
0.057706072
0.057706072
0.057706072
0.057706072
0.057706072
0.057706072
0.057706072
0.057706072
0.057706072
0.057706072
0.057706072
0.057706072
0.057706072
0.057706072
0.057706072
0.057706072
0.057706072
0.057706072
0.057706072
0.057706072
0.057706072
0.057706072
0.057706072
0.057706072
0.057706072
0.057706072
0.053788606
0.022795823
0.012479376
0.031080681
0.0075709399
0.030131252
0.020910186
0.030282065
0.02393345
0.0215646
0.021813211
0.025555691
0.037723746
0.047297652
0.054097734
0.056761029
0.057583612
0.057709412
0.057713602
0.057708043
0.057706285
0.057706049
0.057706061
0.05770607
0.057706072
0.057706072
0.057706072
0.057706072
0.057706072
0.057706072
0.057706072
0.057706072
0.057706072
0.057706072
0.057706072
0.057706072
0.057706072
0.057706072
0.057706072
0.057706072
0.057706072
0.057706072
0.057706072
0.057706072
0.057706072
0.057706072
0.057706072
0.057706072
0.057706072
0.057706072
0.057706072
0.057706072
0.057706072
0.057706072
0.057706072
0.057706072
0.057706072
0.057706072
0.057706072
0.057706072
0.057706072
0.057706072
0.057706072
0.057706072
0.057706072
0.057706072
0.057706072
0.057706072
0.057706072
0.057706072
0.057706072
0.057706072
0.057706072
0.057706072
0.057706072
0.057706072
0.057706072
0.057706072
0.057706072
0.057706072
0.053784759
0.052205483
0.053738475
0.053526895
0.054443544
0.054554163
0.054938825
0.055540959
0.056195774
0.056908547
0.05720254
0.057438836
0.057597812
0.057676349
0.057702864
0.057706299
0.057706388
0.057706135
0.057706082
0.057706071
0.057706071
0.057706072
0.057706072
0.057706072
0.057706072
0.057706072
0.057706072
0.057706072
0.057706072
0.057706072
0.057706072