/*--------------------------------*- C++ -*----------------------------------*\
| =========                 |                                                 |
| \\      /  F ield         | OpenFOAM: The Open Source CFD Toolbox           |
|  \\    /   O peration     | Version:  2406                                  |
|   \\  /    A nd           | Website:  www.openfoam.com                      |
|    \\/     M anipulation  |                                                 |
\*---------------------------------------------------------------------------*/
FoamFile
{
    version     2.0;
    format      ascii;
    arch        "LSB;label=32;scalar=64";
    class       volScalarField;
    location    "9e-05";
    object      nut;
}
// * * * * * * * * * * * * * * * * * * * * * * * * * * * * * * * * * * * * * //

dimensions      [0 2 -1 0 0 0 0];

internalField   nonuniform List<scalar> 
16000
(
1.0123516e-05
4.5585838e-05
8.1245912e-05
0.00015064579
0.00011462746
0.00014629544
0.00017118912
0.0001391038
0.00015032925
0.0001411578
0.00014997898
0.00019821465
0.00030903021
0.00078989646
0.00099992492
0.00099992443
0.00099992436
0.00099992439
0.0009999244
0.0009999244
0.0009999244
0.0009999244
0.00099992441
0.00099992442
0.00099992446
0.00099992451
0.00099992457
0.00099992464
0.0009999247
0.00099992475
0.00099992479
0.00099992483
0.00099992486
0.00099992488
0.0009999249
0.00099992491
0.00099992492
0.00099992493
0.00099992494
0.00099992494
0.00099992495
0.00099992495
0.00099992495
0.00099992496
0.00099992496
0.00099992496
0.00099992496
0.00099992496
0.00099992496
0.00099992496
0.00099992496
0.00099992496
0.00099992496
0.00099992496
0.00099992496
0.00099992496
0.00099992496
0.00099992496
0.00099992496
0.00099992496
0.00099992496
0.00099992496
0.00099992496
0.00099992496
0.00099992496
0.00099992496
0.00099992496
0.00099992496
0.00099992496
0.00099992496
0.00099992496
0.00099992496
0.00099992496
0.00099992496
0.00099992496
0.00099992496
0.00099992496
0.00099992496
0.00099992496
0.00099992497
9.818964e-06
7.9449044e-05
0.00015426655
0.0001402049
0.00011597388
0.00016291541
0.00013664845
0.00011999902
0.00012444361
0.00012596209
7.9424019e-05
7.9074549e-05
0.00010276813
0.00022497041
0.00083616409
0.00099992483
0.00099992442
0.00099992437
0.00099992439
0.0009999244
0.0009999244
0.0009999244
0.00099992441
0.00099992442
0.00099992445
0.00099992449
0.00099992456
0.00099992462
0.00099992468
0.00099992474
0.00099992478
0.00099992482
0.00099992485
0.00099992487
0.00099992489
0.00099992491
0.00099992492
0.00099992493
0.00099992494
0.00099992494
0.00099992495
0.00099992495
0.00099992495
0.00099992495
0.00099992496
0.00099992496
0.00099992496
0.00099992496
0.00099992496
0.00099992496
0.00099992496
0.00099992496
0.00099992496
0.00099992496
0.00099992496
0.00099992496
0.00099992496
0.00099992496
0.00099992496
0.00099992496
0.00099992496
0.00099992496
0.00099992496
0.00099992496
0.00099992496
0.00099992496
0.00099992496
0.00099992496
0.00099992496
0.00099992496
0.00099992496
0.00099992496
0.00099992496
0.00099992496
0.00099992496
0.00099992496
0.00099992496
0.00099992496
0.00099992496
0.00099992499
9.5470145e-06
0.00027749237
0.00011227233
0.0001013649
0.00010237401
0.00014816099
0.0001236139
0.00011519708
9.0153189e-05
0.00010806881
5.3266427e-05
4.7042464e-05
5.7403957e-05
0.0001153536
0.00036188031
0.00099992566
0.00099992451
0.00099992435
0.00099992438
0.0009999244
0.0009999244
0.0009999244
0.00099992441
0.00099992442
0.00099992444
0.00099992448
0.00099992454
0.00099992461
0.00099992467
0.00099992473
0.00099992477
0.00099992481
0.00099992484
0.00099992487
0.00099992489
0.0009999249
0.00099992492
0.00099992493
0.00099992493
0.00099992494
0.00099992494
0.00099992495
0.00099992495
0.00099992495
0.00099992496
0.00099992496
0.00099992496
0.00099992496
0.00099992496
0.00099992496
0.00099992496
0.00099992496
0.00099992496
0.00099992496
0.00099992496
0.00099992496
0.00099992496
0.00099992496
0.00099992496
0.00099992496
0.00099992496
0.00099992496
0.00099992496
0.00099992496
0.00099992496
0.00099992496
0.00099992496
0.00099992496
0.00099992496
0.00099992496
0.00099992496
0.00099992496
0.00099992496
0.00099992496
0.00099992496
0.00099992496
0.00099992496
0.00099992496
0.00099992496
0.00099992501
6.2762645e-06
6.3558452e-05
4.8115048e-05
8.8167271e-05
0.00010090166
0.00011551809
0.00010428236
0.00010586172
6.255184e-05
9.7568423e-05
4.1454332e-05
3.2793625e-05
3.7835612e-05
7.1685132e-05
0.00020076792
0.00099262447
0.00099992462
0.00099992434
0.00099992437
0.0009999244
0.0009999244
0.0009999244
0.00099992441
0.00099992441
0.00099992443
0.00099992447
0.00099992453
0.00099992459
0.00099992466
0.00099992471
0.00099992476
0.00099992481
0.00099992484
0.00099992486
0.00099992488
0.0009999249
0.00099992491
0.00099992492
0.00099992493
0.00099992494
0.00099992494
0.00099992495
0.00099992495
0.00099992495
0.00099992496
0.00099992496
0.00099992496
0.00099992496
0.00099992496
0.00099992496
0.00099992496
0.00099992496
0.00099992496
0.00099992496
0.00099992496
0.00099992496
0.00099992496
0.00099992496
0.00099992496
0.00099992496
0.00099992496
0.00099992496
0.00099992496
0.00099992496
0.00099992496
0.00099992496
0.00099992496
0.00099992496
0.00099992496
0.00099992496
0.00099992496
0.00099992496
0.00099992496
0.00099992496
0.00099992496
0.00099992496
0.00099992496
0.00099992496
0.00099992496
0.00099992503
4.5578391e-06
4.143897e-05
2.7744258e-05
5.6664758e-05
9.0533962e-05
9.3105676e-05
7.2378255e-05
9.2325782e-05
4.4927017e-05
8.8622684e-05
3.4984018e-05
2.5080106e-05
2.7397223e-05
4.9325104e-05
0.0001256994
0.00058009922
0.00099992479
0.00099992434
0.00099992435
0.00099992439
0.0009999244
0.0009999244
0.0009999244
0.00099992441
0.00099992443
0.00099992447
0.00099992452
0.00099992458
0.00099992465
0.0009999247
0.00099992476
0.0009999248
0.00099992483
0.00099992486
0.00099992488
0.0009999249
0.00099992491
0.00099992492
0.00099992493
0.00099992494
0.00099992494
0.00099992495
0.00099992495
0.00099992495
0.00099992496
0.00099992496
0.00099992496
0.00099992496
0.00099992496
0.00099992496
0.00099992496
0.00099992496
0.00099992496
0.00099992496
0.00099992496
0.00099992496
0.00099992496
0.00099992496
0.00099992496
0.00099992496
0.00099992496
0.00099992496
0.00099992496
0.00099992496
0.00099992496
0.00099992496
0.00099992496
0.00099992496
0.00099992496
0.00099992496
0.00099992496
0.00099992496
0.00099992496
0.00099992496
0.00099992496
0.00099992496
0.00099992496
0.00099992496
0.00099992496
0.00099992504
3.5484243e-06
2.6096597e-05
1.8517568e-05
4.1065326e-05
6.3476796e-05
6.6316769e-05
4.9688596e-05
7.5350657e-05
3.3400407e-05
8.2429478e-05
3.0430025e-05
2.0322989e-05
2.1017537e-05
3.612659e-05
8.4740102e-05
0.00036812599
0.00099992506
0.00099992436
0.00099992432
0.00099992439
0.0009999244
0.0009999244
0.0009999244
0.00099992441
0.00099992443
0.00099992446
0.00099992451
0.00099992457
0.00099992464
0.0009999247
0.00099992475
0.00099992479
0.00099992483
0.00099992486
0.00099992488
0.0009999249
0.00099992491
0.00099992492
0.00099992493
0.00099992494
0.00099992494
0.00099992495
0.00099992495
0.00099992495
0.00099992496
0.00099992496
0.00099992496
0.00099992496
0.00099992496
0.00099992496
0.00099992496
0.00099992496
0.00099992496
0.00099992496
0.00099992496
0.00099992496
0.00099992496
0.00099992496
0.00099992496
0.00099992496
0.00099992496
0.00099992496
0.00099992496
0.00099992496
0.00099992496
0.00099992496
0.00099992496
0.00099992496
0.00099992496
0.00099992496
0.00099992496
0.00099992496
0.00099992496
0.00099992496
0.00099992496
0.00099992496
0.00099992496
0.00099992496
0.00099992496
0.00099992506
2.8672232e-06
1.8109402e-05
1.303578e-05
3.0658409e-05
4.4212494e-05
4.7548806e-05
3.7915831e-05
6.6398404e-05
2.6666154e-05
7.9163256e-05
2.7567221e-05
1.7033555e-05
1.6778897e-05
2.7645801e-05
6.0182893e-05
0.00024790529
0.00099992547
0.00099992438
0.00099992429
0.00099992438
0.0009999244
0.0009999244
0.0009999244
0.00099992441
0.00099992442
0.00099992445
0.0009999245
0.00099992456
0.00099992462
0.00099992468
0.00099992474
0.00099992478
0.00099992482
0.00099992485
0.00099992487
0.00099992489
0.00099992491
0.00099992492
0.00099992493
0.00099992494
0.00099992494
0.00099992495
0.00099992495
0.00099992495
0.00099992495
0.00099992496
0.00099992496
0.00099992496
0.00099992496
0.00099992496
0.00099992496
0.00099992496
0.00099992496
0.00099992496
0.00099992496
0.00099992496
0.00099992496
0.00099992496
0.00099992496
0.00099992496
0.00099992496
0.00099992496
0.00099992496
0.00099992496
0.00099992496
0.00099992496
0.00099992496
0.00099992496
0.00099992496
0.00099992496
0.00099992496
0.00099992496
0.00099992496
0.00099992496
0.00099992496
0.00099992496
0.00099992496
0.00099992496
0.00099992496
0.00099992509
2.3997932e-06
1.3066358e-05
9.8089693e-06
2.4204797e-05
3.0778386e-05
3.7224132e-05
3.2160672e-05
7.1471597e-05
2.2838832e-05
7.2465482e-05
2.613993e-05
1.4562143e-05
1.3787146e-05
2.1845208e-05
4.4959536e-05
0.00017482478
0.0009999261
0.00099992443
0.00099992426
0.00099992437
0.0009999244
0.0009999244
0.0009999244
0.00099992441
0.00099992442
0.00099992444
0.00099992449
0.00099992455
0.00099992461
0.00099992467
0.00099992473
0.00099992478
0.00099992481
0.00099992485
0.00099992487
0.00099992489
0.0009999249
0.00099992492
0.00099992493
0.00099992493
0.00099992494
0.00099992495
0.00099992495
0.00099992495
0.00099992495
0.00099992496
0.00099992496
0.00099992496
0.00099992496
0.00099992496
0.00099992496
0.00099992496
0.00099992496
0.00099992496
0.00099992496
0.00099992496
0.00099992496
0.00099992496
0.00099992496
0.00099992496
0.00099992496
0.00099992496
0.00099992496
0.00099992496
0.00099992496
0.00099992496
0.00099992496
0.00099992496
0.00099992496
0.00099992496
0.00099992496
0.00099992496
0.00099992496
0.00099992496
0.00099992496
0.00099992496
0.00099992496
0.00099992496
0.00099992496
0.00099992511
2.2164401e-06
9.7323668e-06
8.9044867e-06
1.9526593e-05
2.3275424e-05
3.0008507e-05
2.9155733e-05
8.0103529e-05
2.0165348e-05
5.8033085e-05
2.5369431e-05
1.2622996e-05
1.1598775e-05
1.7703373e-05
3.5277202e-05
0.00012787256
0.00099992702
0.00099992448
0.00099992422
0.00099992436
0.0009999244
0.0009999244
0.0009999244
0.00099992441
0.00099992442
0.00099992444
0.00099992448
0.00099992454
0.0009999246
0.00099992467
0.00099992472
0.00099992477
0.00099992481
0.00099992484
0.00099992487
0.00099992489
0.0009999249
0.00099992492
0.00099992493
0.00099992493
0.00099992494
0.00099992494
0.00099992495
0.00099992495
0.00099992495
0.00099992496
0.00099992496
0.00099992496
0.00099992496
0.00099992496
0.00099992496
0.00099992496
0.00099992496
0.00099992496
0.00099992496
0.00099992496
0.00099992496
0.00099992496
0.00099992496
0.00099992496
0.00099992496
0.00099992496
0.00099992496
0.00099992496
0.00099992496
0.00099992496
0.00099992496
0.00099992496
0.00099992496
0.00099992496
0.00099992496
0.00099992496
0.00099992496
0.00099992496
0.00099992496
0.00099992496
0.00099992496
0.00099992496
0.00099992496
0.00099992513
2.133322e-06
7.4482057e-06
8.0932328e-06
1.5882182e-05
1.8821423e-05
2.4643714e-05
2.8147343e-05
8.1661277e-05
1.8282226e-05
4.2185472e-05
2.5409382e-05
1.1064609e-05
9.9185931e-06
1.4629659e-05
2.8304173e-05
9.630841e-05
0.00080280741
0.00099992455
0.00099992418
0.00099992434
0.0009999244
0.0009999244
0.0009999244
0.00099992441
0.00099992441
0.00099992444
0.00099992448
0.00099992453
0.0009999246
0.00099992466
0.00099992472
0.00099992477
0.00099992481
0.00099992484
0.00099992486
0.00099992489
0.0009999249
0.00099992491
0.00099992492
0.00099992493
0.00099992494
0.00099992494
0.00099992495
0.00099992495
0.00099992495
0.00099992496
0.00099992496
0.00099992496
0.00099992496
0.00099992496
0.00099992496
0.00099992496
0.00099992496
0.00099992496
0.00099992496
0.00099992496
0.00099992496
0.00099992496
0.00099992496
0.00099992496
0.00099992496
0.00099992496
0.00099992496
0.00099992496
0.00099992496
0.00099992496
0.00099992496
0.00099992496
0.00099992496
0.00099992496
0.00099992496
0.00099992496
0.00099992496
0.00099992496
0.00099992496
0.00099992496
0.00099992496
0.00099992496
0.00099992496
0.00099992516
2.1767693e-06
5.7779735e-06
6.5760419e-06
1.5112986e-05
1.6064292e-05
2.0332244e-05
2.9075149e-05
6.2770749e-05
1.6852663e-05
3.169717e-05
2.6128913e-05
9.8473443e-06
8.5891493e-06
1.2278005e-05
2.3114911e-05
7.4267537e-05
0.00057101581
0.00099992464
0.00099992414
0.00099992432
0.0009999244
0.0009999244
0.0009999244
0.00099992441
0.00099992441
0.00099992443
0.00099992447
0.00099992453
0.00099992459
0.00099992465
0.00099992471
0.00099992476
0.0009999248
0.00099992483
0.00099992486
0.00099992488
0.0009999249
0.00099992491
0.00099992492
0.00099992493
0.00099992494
0.00099992494
0.00099992495
0.00099992495
0.00099992495
0.00099992496
0.00099992496
0.00099992496
0.00099992496
0.00099992496
0.00099992496
0.00099992496
0.00099992496
0.00099992496
0.00099992496
0.00099992496
0.00099992496
0.00099992496
0.00099992496
0.00099992496
0.00099992496
0.00099992496
0.00099992496
0.00099992496
0.00099992496
0.00099992496
0.00099992496
0.00099992496
0.00099992496
0.00099992496
0.00099992496
0.00099992496
0.00099992496
0.00099992496
0.00099992496
0.00099992496
0.00099992496
0.00099992496
0.00099992496
0.00099992518
2.4503202e-06
4.5103781e-06
4.1206942e-06
1.5437006e-05
1.4149654e-05
1.6856566e-05
3.1693674e-05
4.0905233e-05
1.5716645e-05
2.5155021e-05
2.7517017e-05
8.8719945e-06
7.5065673e-06
1.0433227e-05
1.9145357e-05
5.8368184e-05
0.00041891216
0.00099992475
0.00099992411
0.0009999243
0.00099992439
0.0009999244
0.0009999244
0.0009999244
0.00099992441
0.00099992443
0.00099992446
0.00099992452
0.00099992458
0.00099992464
0.0009999247
0.00099992475
0.0009999248
0.00099992483
0.00099992486
0.00099992488
0.0009999249
0.00099992491
0.00099992492
0.00099992493
0.00099992494
0.00099992494
0.00099992495
0.00099992495
0.00099992495
0.00099992496
0.00099992496
0.00099992496
0.00099992496
0.00099992496
0.00099992496
0.00099992496
0.00099992496
0.00099992496
0.00099992496
0.00099992496
0.00099992496
0.00099992496
0.00099992496
0.00099992496
0.00099992496
0.00099992496
0.00099992496
0.00099992496
0.00099992496
0.00099992496
0.00099992496
0.00099992496
0.00099992496
0.00099992496
0.00099992496
0.00099992496
0.00099992496
0.00099992496
0.00099992496
0.00099992496
0.00099992496
0.00099992496
0.00099992496
0.00099992521
3.1701364e-06
3.5939121e-06
2.9021575e-06
1.5241026e-05
1.2521326e-05
1.4082001e-05
3.3964058e-05
2.7311873e-05
1.4736051e-05
2.0641319e-05
2.9383888e-05
8.0666236e-06
6.6125527e-06
8.9512547e-06
1.6036453e-05
4.6580521e-05
0.00031490475
0.00099992491
0.00099992408
0.00099992428
0.00099992439
0.0009999244
0.0009999244
0.0009999244
0.00099992441
0.00099992443
0.00099992446
0.00099992451
0.00099992457
0.00099992464
0.0009999247
0.00099992475
0.00099992479
0.00099992483
0.00099992486
0.00099992488
0.0009999249
0.00099992491
0.00099992492
0.00099992493
0.00099992494
0.00099992494
0.00099992495
0.00099992495
0.00099992495
0.00099992496
0.00099992496
0.00099992496
0.00099992496
0.00099992496
0.00099992496
0.00099992496
0.00099992496
0.00099992496
0.00099992496
0.00099992496
0.00099992496
0.00099992496
0.00099992496
0.00099992496
0.00099992496
0.00099992496
0.00099992496
0.00099992496
0.00099992496
0.00099992496
0.00099992496
0.00099992496
0.00099992496
0.00099992496
0.00099992496
0.00099992496
0.00099992496
0.00099992496
0.00099992496
0.00099992496
0.00099992496
0.00099992496
0.00099992496
0.00099992524
4.1966113e-06
2.9423827e-06
2.3819642e-06
1.4508475e-05
1.1077788e-05
1.1879789e-05
3.3113434e-05
1.9284108e-05
1.3952048e-05
1.7315601e-05
3.1136887e-05
7.3896643e-06
5.8660072e-06
7.7385836e-06
1.3552393e-05
3.7632227e-05
0.00024132885
0.00099992511
0.00099992405
0.00099992425
0.00099992439
0.0009999244
0.0009999244
0.0009999244
0.00099992441
0.00099992443
0.00099992446
0.00099992451
0.00099992457
0.00099992464
0.0009999247
0.00099992475
0.00099992479
0.00099992483
0.00099992485
0.00099992488
0.0009999249
0.00099992491
0.00099992492
0.00099992493
0.00099992494
0.00099992494
0.00099992495
0.00099992495
0.00099992495
0.00099992496
0.00099992496
0.00099992496
0.00099992496
0.00099992496
0.00099992496
0.00099992496
0.00099992496
0.00099992496
0.00099992496
0.00099992496
0.00099992496
0.00099992496
0.00099992496
0.00099992496
0.00099992496
0.00099992496
0.00099992496
0.00099992496
0.00099992496
0.00099992496
0.00099992496
0.00099992496
0.00099992496
0.00099992496
0.00099992496
0.00099992496
0.00099992496
0.00099992496
0.00099992496
0.00099992496
0.00099992496
0.00099992496
0.00099992496
0.00099992528
3.6912167e-06
2.5363671e-06
1.9601124e-06
1.3787217e-05
9.7676281e-06
1.0719471e-05
2.8364727e-05
1.4120597e-05
1.3353795e-05
1.4845783e-05
3.1327938e-05
6.8118441e-06
5.2369298e-06
6.7329745e-06
1.1536828e-05
3.0742338e-05
0.00018785682
0.00099992537
0.00099992402
0.00099992421
0.00099992438
0.0009999244
0.0009999244
0.0009999244
0.00099992441
0.00099992442
0.00099992446
0.0009999245
0.00099992456
0.00099992463
0.00099992469
0.00099992474
0.00099992479
0.00099992482
0.00099992485
0.00099992488
0.00099992489
0.00099992491
0.00099992492
0.00099992493
0.00099992494
0.00099992494
0.00099992495
0.00099992495
0.00099992495
0.00099992496
0.00099992496
0.00099992496
0.00099992496
0.00099992496
0.00099992496
0.00099992496
0.00099992496
0.00099992496
0.00099992496
0.00099992496
0.00099992496
0.00099992496
0.00099992496
0.00099992496
0.00099992496
0.00099992496
0.00099992496
0.00099992496
0.00099992496
0.00099992496
0.00099992496
0.00099992496
0.00099992496
0.00099992496
0.00099992496
0.00099992496
0.00099992496
0.00099992496
0.00099992496
0.00099992496
0.00099992496
0.00099992496
0.00099992496
0.00099992531
2.9332342e-06
2.074422e-06
1.6115763e-06
1.365508e-05
8.5647542e-06
1.0435268e-05
2.2009663e-05
1.0623608e-05
1.2875464e-05
1.299058e-05
2.846455e-05
6.300545e-06
4.6991962e-06
5.8886631e-06
9.8819715e-06
2.5512083e-05
0.00014821527
0.00099992571
0.000999924
0.00099992417
0.00099992437
0.0009999244
0.0009999244
0.0009999244
0.00099992441
0.00099992442
0.00099992445
0.0009999245
0.00099992456
0.00099992463
0.00099992469
0.00099992474
0.00099992479
0.00099992482
0.00099992485
0.00099992488
0.00099992489
0.00099992491
0.00099992492
0.00099992493
0.00099992494
0.00099992494
0.00099992495
0.00099992495
0.00099992495
0.00099992496
0.00099992496
0.00099992496
0.00099992496
0.00099992496
0.00099992496
0.00099992496
0.00099992496
0.00099992496
0.00099992496
0.00099992496
0.00099992496
0.00099992496
0.00099992496
0.00099992496
0.00099992496
0.00099992496
0.00099992496
0.00099992496
0.00099992496
0.00099992496
0.00099992496
0.00099992496
0.00099992496
0.00099992496
0.00099992496
0.00099992496
0.00099992496
0.00099992496
0.00099992496
0.00099992496
0.00099992496
0.00099992496
0.00099992497
0.00099992535
2.2553865e-06
1.6788697e-06
1.3398748e-06
1.1154839e-05
7.5262275e-06
8.9817291e-06
1.6860724e-05
8.2240677e-06
1.2402765e-05
1.1492604e-05
2.3488634e-05
5.8136882e-06
4.2251301e-06
5.1670907e-06
8.50827e-06
2.1512443e-05
0.00011848916
0.00099992617
0.00099992398
0.00099992412
0.00099992436
0.0009999244
0.0009999244
0.0009999244
0.00099992441
0.00099992442
0.00099992445
0.0009999245
0.00099992456
0.00099992462
0.00099992469
0.00099992474
0.00099992479
0.00099992482
0.00099992485
0.00099992487
0.00099992489
0.00099992491
0.00099992492
0.00099992493
0.00099992494
0.00099992494
0.00099992495
0.00099992495
0.00099992495
0.00099992496
0.00099992496
0.00099992496
0.00099992496
0.00099992496
0.00099992496
0.00099992496
0.00099992496
0.00099992496
0.00099992496
0.00099992496
0.00099992496
0.00099992496
0.00099992496
0.00099992496
0.00099992496
0.00099992496
0.00099992496
0.00099992496
0.00099992496
0.00099992496
0.00099992496
0.00099992496
0.00099992496
0.00099992496
0.00099992496
0.00099992496
0.00099992496
0.00099992496
0.00099992496
0.00099992496
0.00099992496
0.00099992496
0.00099992497
0.00099992539
1.8058554e-06
1.3776576e-06
1.1062464e-06
1.0679755e-05
6.5271423e-06
8.8458914e-06
1.2730217e-05
6.5420724e-06
1.1742401e-05
1.0131294e-05
1.8590763e-05
5.3335472e-06
3.7915399e-06
4.5387776e-06
7.3560625e-06
1.8264841e-05
9.6144796e-05
0.00099992675
0.00099992397
0.00099992407
0.00099992435
0.0009999244
0.0009999244
0.0009999244
0.00099992441
0.00099992442
0.00099992445
0.0009999245
0.00099992456
0.00099992462
0.00099992468
0.00099992474
0.00099992478
0.00099992482
0.00099992485
0.00099992487
0.00099992489
0.00099992491
0.00099992492
0.00099992493
0.00099992494
0.00099992494
0.00099992495
0.00099992495
0.00099992495
0.00099992496
0.00099992496
0.00099992496
0.00099992496
0.00099992496
0.00099992496
0.00099992496
0.00099992496
0.00099992496
0.00099992496
0.00099992496
0.00099992496
0.00099992496
0.00099992496
0.00099992496
0.00099992496
0.00099992496
0.00099992496
0.00099992496
0.00099992496
0.00099992496
0.00099992496
0.00099992496
0.00099992496
0.00099992496
0.00099992496
0.00099992496
0.00099992496
0.00099992496
0.00099992496
0.00099992496
0.00099992496
0.00099992496
0.00099992497
0.00099992544
1.2073625e-06
1.1068064e-06
9.1611613e-07
8.123589e-06
5.5593259e-06
6.7237678e-06
1.033183e-05
5.2344769e-06
1.1080956e-05
8.8297876e-06
1.4748703e-05
4.8870939e-06
3.4007322e-06
3.9945818e-06
6.3947341e-06
1.5641236e-05
7.9447529e-05
0.00090073733
0.00099992396
0.00099992402
0.00099992434
0.0009999244
0.00099992441
0.0009999244
0.00099992441
0.00099992442
0.00099992445
0.00099992449
0.00099992455
0.00099992462
0.00099992468
0.00099992474
0.00099992478
0.00099992482
0.00099992485
0.00099992488
0.00099992489
0.00099992491
0.00099992492
0.00099992493
0.00099992494
0.00099992494
0.00099992495
0.00099992495
0.00099992495
0.00099992496
0.00099992496
0.00099992496
0.00099992496
0.00099992496
0.00099992496
0.00099992496
0.00099992496
0.00099992496
0.00099992496
0.00099992496
0.00099992496
0.00099992496
0.00099992496
0.00099992496
0.00099992496
0.00099992496
0.00099992496
0.00099992496
0.00099992496
0.00099992496
0.00099992496
0.00099992496
0.00099992496
0.00099992496
0.00099992496
0.00099992496
0.00099992496
0.00099992496
0.00099992496
0.00099992496
0.00099992496
0.00099992496
0.00099992497
0.00099992548
8.7799291e-07
8.6050605e-07
7.4694094e-07
7.4227244e-06
4.7424699e-06
6.3721128e-06
8.0772217e-06
4.6193021e-06
9.7728357e-06
7.8027288e-06
1.2290876e-05
4.9204458e-06
3.0721474e-06
3.5467747e-06
5.6221411e-06
1.3587841e-05
6.7248603e-05
0.00073254777
0.00099992394
0.00099992396
0.00099992433
0.0009999244
0.00099992441
0.0009999244
0.00099992441
0.00099992442
0.00099992445
0.0009999245
0.00099992456
0.00099992462
0.00099992468
0.00099992474
0.00099992479
0.00099992482
0.00099992485
0.00099992488
0.00099992489
0.00099992491
0.00099992492
0.00099992493
0.00099992494
0.00099992494
0.00099992495
0.00099992495
0.00099992495
0.00099992496
0.00099992496
0.00099992496
0.00099992496
0.00099992496
0.00099992496
0.00099992496
0.00099992496
0.00099992496
0.00099992496
0.00099992496
0.00099992496
0.00099992496
0.00099992496
0.00099992496
0.00099992496
0.00099992496
0.00099992496
0.00099992496
0.00099992496
0.00099992496
0.00099992496
0.00099992496
0.00099992496
0.00099992496
0.00099992496
0.00099992496
0.00099992496
0.00099992496
0.00099992496
0.00099992496
0.00099992496
0.00099992496
0.00099992497
0.00099992553
8.0433835e-07
7.8040181e-07
5.871339e-07
1.9834353e-05
3.9647375e-06
1.1987325e-05
5.7933048e-06
4.2978568e-06
8.5358236e-06
7.6473205e-06
1.1175143e-05
4.4307988e-06
2.8123785e-06
3.2068379e-06
5.0395975e-06
1.209143e-05
5.8937297e-05
0.00062875378
0.00099992391
0.00099992391
0.00099992432
0.0009999244
0.00099992441
0.0009999244
0.00099992441
0.00099992442
0.00099992445
0.0009999245
0.00099992456
0.00099992463
0.00099992469
0.00099992474
0.00099992479
0.00099992482
0.00099992485
0.00099992488
0.0009999249
0.00099992491
0.00099992492
0.00099992493
0.00099992494
0.00099992494
0.00099992495
0.00099992495
0.00099992495
0.00099992496
0.00099992496
0.00099992496
0.00099992496
0.00099992496
0.00099992496
0.00099992496
0.00099992496
0.00099992496
0.00099992496
0.00099992496
0.00099992496
0.00099992496
0.00099992496
0.00099992496
0.00099992496
0.00099992496
0.00099992496
0.00099992496
0.00099992496
0.00099992496
0.00099992496
0.00099992496
0.00099992496
0.00099992496
0.00099992496
0.00099992496
0.00099992496
0.00099992496
0.00099992496
0.00099992496
0.00099992496
0.00099992496
0.00099992497
0.00099992558
9.1131473e-07
6.6762383e-07
4.9130664e-07
2.1757953e-05
3.3166767e-06
6.9314389e-06
4.8500185e-06
4.6280807e-06
7.5375684e-06
7.5577748e-06
1.0733968e-05
3.8511055e-06
2.6114692e-06
2.9599875e-06
4.638715e-06
1.1127212e-05
5.4291243e-05
0.00058164874
0.00099992386
0.00099992388
0.00099992432
0.0009999244
0.00099992441
0.0009999244
0.00099992441
0.00099992442
0.00099992446
0.00099992451
0.00099992456
0.00099992463
0.00099992469
0.00099992475
0.00099992479
0.00099992483
0.00099992486
0.00099992488
0.0009999249
0.00099992491
0.00099992492
0.00099992493
0.00099992494
0.00099992494
0.00099992495
0.00099992495
0.00099992495
0.00099992496
0.00099992496
0.00099992496
0.00099992496
0.00099992496
0.00099992496
0.00099992496
0.00099992496
0.00099992496
0.00099992496
0.00099992496
0.00099992496
0.00099992496
0.00099992496
0.00099992496
0.00099992496
0.00099992496
0.00099992496
0.00099992496
0.00099992496
0.00099992496
0.00099992496
0.00099992496
0.00099992496
0.00099992496
0.00099992496
0.00099992496
0.00099992496
0.00099992496
0.00099992496
0.00099992496
0.00099992496
0.00099992496
0.00099992497
0.00099992563
2.1111579e-06
6.2710617e-07
4.3026634e-07
1.0012631e-05
3.0248916e-06
5.8825033e-06
4.3130516e-06
5.3619538e-06
6.2858114e-06
7.3966652e-06
1.1309259e-05
3.4803625e-06
2.4553864e-06
2.7909825e-06
4.4068797e-06
1.0684463e-05
5.3412219e-05
0.00059470516
0.0009999238
0.00099992386
0.00099992432
0.0009999244
0.00099992441
0.0009999244
0.00099992441
0.00099992443
0.00099992446
0.00099992451
0.00099992457
0.00099992464
0.0009999247
0.00099992475
0.0009999248
0.00099992483
0.00099992486
0.00099992488
0.0009999249
0.00099992491
0.00099992492
0.00099992493
0.00099992494
0.00099992494
0.00099992495
0.00099992495
0.00099992495
0.00099992496
0.00099992496
0.00099992496
0.00099992496
0.00099992496
0.00099992496
0.00099992496
0.00099992496
0.00099992496
0.00099992496
0.00099992496
0.00099992496
0.00099992496
0.00099992496
0.00099992496
0.00099992496
0.00099992496
0.00099992496
0.00099992496
0.00099992496
0.00099992496
0.00099992496
0.00099992496
0.00099992496
0.00099992496
0.00099992496
0.00099992496
0.00099992496
0.00099992496
0.00099992496
0.00099992496
0.00099992496
0.00099992496
0.00099992497
0.00099992568
1.2540408e-06
6.7126632e-07
3.8701132e-07
4.8646118e-06
2.9710517e-06
4.4089025e-06
5.4088146e-06
5.7758174e-06
6.2890658e-06
7.8112403e-06
1.1715248e-05
3.2013087e-06
2.3223368e-06
2.6945092e-06
4.3418984e-06
1.0779021e-05
5.6798973e-05
0.00068998594
0.00099992371
0.00099992388
0.00099992432
0.0009999244
0.00099992441
0.0009999244
0.00099992441
0.00099992443
0.00099992446
0.00099992452
0.00099992458
0.00099992464
0.0009999247
0.00099992476
0.0009999248
0.00099992483
0.00099992486
0.00099992488
0.0009999249
0.00099992491
0.00099992492
0.00099992493
0.00099992494
0.00099992494
0.00099992495
0.00099992495
0.00099992495
0.00099992496
0.00099992496
0.00099992496
0.00099992496
0.00099992496
0.00099992496
0.00099992496
0.00099992496
0.00099992496
0.00099992496
0.00099992496
0.00099992496
0.00099992496
0.00099992496
0.00099992496
0.00099992496
0.00099992496
0.00099992496
0.00099992496
0.00099992496
0.00099992496
0.00099992496
0.00099992496
0.00099992496
0.00099992496
0.00099992496
0.00099992496
0.00099992496
0.00099992496
0.00099992496
0.00099992496
0.00099992496
0.00099992496
0.00099992497
0.00099992573
8.2062859e-07
9.0289911e-07
3.3384774e-07
3.6539591e-06
2.8671493e-06
2.2414917e-06
4.0193989e-06
3.0244206e-06
5.2746182e-06
8.3819014e-06
1.01025e-05
2.9781297e-06
2.2012783e-06
2.668306e-06
4.4420474e-06
1.1444837e-05
6.5612533e-05
0.00093338509
0.0009999236
0.00099992392
0.00099992434
0.0009999244
0.00099992441
0.00099992441
0.00099992441
0.00099992443
0.00099992447
0.00099992452
0.00099992459
0.00099992466
0.00099992471
0.00099992476
0.0009999248
0.00099992484
0.00099992486
0.00099992488
0.0009999249
0.00099992491
0.00099992492
0.00099992493
0.00099992494
0.00099992494
0.00099992495
0.00099992495
0.00099992495
0.00099992496
0.00099992496
0.00099992496
0.00099992496
0.00099992496
0.00099992496
0.00099992496
0.00099992496
0.00099992496
0.00099992496
0.00099992496
0.00099992496
0.00099992496
0.00099992496
0.00099992496
0.00099992496
0.00099992496
0.00099992496
0.00099992496
0.00099992496
0.00099992496
0.00099992496
0.00099992496
0.00099992496
0.00099992496
0.00099992496
0.00099992496
0.00099992496
0.00099992496
0.00099992496
0.00099992496
0.00099992496
0.00099992496
0.00099992497
0.00099992578
5.4033715e-07
5.6774386e-07
3.0171874e-07
2.9330482e-06
2.9252093e-06
1.5379501e-06
3.058785e-06
2.9012226e-06
4.4372626e-06
7.9992332e-06
8.8599023e-06
2.9293525e-06
2.1174813e-06
2.7087034e-06
4.6991453e-06
1.288861e-05
8.1748134e-05
0.00099992664
0.0009999235
0.00099992399
0.00099992435
0.00099992441
0.00099992441
0.00099992441
0.00099992441
0.00099992443
0.00099992447
0.00099992453
0.00099992459
0.00099992466
0.00099992472
0.00099992477
0.00099992481
0.00099992484
0.00099992486
0.00099992489
0.0009999249
0.00099992491
0.00099992492
0.00099992493
0.00099992494
0.00099992494
0.00099992495
0.00099992495
0.00099992495
0.00099992496
0.00099992496
0.00099992496
0.00099992496
0.00099992496
0.00099992496
0.00099992496
0.00099992496
0.00099992496
0.00099992496
0.00099992496
0.00099992496
0.00099992496
0.00099992496
0.00099992496
0.00099992496
0.00099992496
0.00099992496
0.00099992496
0.00099992496
0.00099992496
0.00099992496
0.00099992496
0.00099992496
0.00099992496
0.00099992496
0.00099992496
0.00099992496
0.00099992496
0.00099992496
0.00099992496
0.00099992496
0.00099992496
0.00099992497
0.00099992583
4.4936112e-07
4.5768686e-07
5.0631993e-07
3.2261071e-06
2.8628069e-06
1.4539669e-06
3.1041953e-06
3.3616197e-06
3.8490835e-06