/*--------------------------------*- C++ -*----------------------------------*\
| =========                 |                                                 |
| \\      /  F ield         | OpenFOAM: The Open Source CFD Toolbox           |
|  \\    /   O peration     | Version:  2406                                  |
|   \\  /    A nd           | Website:  www.openfoam.com                      |
|    \\/     M anipulation  |                                                 |
\*---------------------------------------------------------------------------*/
FoamFile
{
    version     2.0;
    format      ascii;
    arch        "LSB;label=32;scalar=64";
    class       volScalarField;
    location    "9e-05";
    object      omega;
}
// * * * * * * * * * * * * * * * * * * * * * * * * * * * * * * * * * * * * * //

dimensions      [0 0 -1 0 0 0 0];

internalField   nonuniform List<scalar> 
16000
(
1071.9381
10.042905
10.005955
10.00154
10.001939
10.001462
10.001132
10.002186
10.001798
10.001511
10.000776
10.000118
9.999889
9.9998965
9.9999401
9.9999487
9.9999473
9.9999463
9.999946
9.999946
9.999946
9.999946
9.9999459
9.9999458
9.9999455
9.9999449
9.9999443
9.9999437
9.9999431
9.9999425
9.9999421
9.9999417
9.9999415
9.9999412
9.9999411
9.9999409
9.9999408
9.9999407
9.9999407
9.9999406
9.9999406
9.9999405
9.9999405
9.9999405
9.9999405
9.9999404
9.9999404
9.9999404
9.9999404
9.9999404
9.9999404
9.9999404
9.9999404
9.9999404
9.9999404
9.9999404
9.9999404
9.9999404
9.9999404
9.9999404
9.9999404
9.9999404
9.9999404
9.9999404
9.9999404
9.9999404
9.9999404
9.9999404
9.9999404
9.9999404
9.9999404
9.9999404
9.9999404
9.9999404
9.9999404
9.9999404
9.9999404
9.9999404
9.9999404
9.9999404
1105.6884
10.062456
10.003381
10.002193
10.002765
10.000998
10.001834
10.003161
10.002554
10.002199
10.00355
10.002339
10.000826
9.99994
9.999891
9.9999422
9.9999476
9.9999471
9.9999462
9.999946
9.999946
9.999946
9.999946
9.9999458
9.9999455
9.9999451
9.9999445
9.9999438
9.9999432
9.9999427
9.9999422
9.9999418
9.9999415
9.9999413
9.9999411
9.999941
9.9999408
9.9999407
9.9999407
9.9999406
9.9999406
9.9999405
9.9999405
9.9999405
9.9999405
9.9999404
9.9999404
9.9999404
9.9999404
9.9999404
9.9999404
9.9999404
9.9999404
9.9999404
9.9999404
9.9999404
9.9999404
9.9999404
9.9999404
9.9999404
9.9999404
9.9999404
9.9999404
9.9999404
9.9999404
9.9999404
9.9999404
9.9999404
9.9999404
9.9999404
9.9999404
9.9999404
9.9999404
9.9999404
9.9999404
9.9999404
9.9999404
9.9999404
9.9999404
9.9999404
1138.0771
10.157392
10.001345
10.003557
10.00407
10.001054
10.002498
10.003916
10.003895
10.003401
10.005557
10.004992
10.003545
10.000448
9.9998561
9.9999297
9.9999475
9.9999481
9.9999465
9.999946
9.999946
9.999946
9.999946
9.9999459
9.9999456
9.9999452
9.9999446
9.999944
9.9999433
9.9999428
9.9999423
9.9999419
9.9999416
9.9999413
9.9999411
9.999941
9.9999409
9.9999408
9.9999407
9.9999406
9.9999406
9.9999405
9.9999405
9.9999405
9.9999405
9.9999404
9.9999404
9.9999404
9.9999404
9.9999404
9.9999404
9.9999404
9.9999404
9.9999404
9.9999404
9.9999404
9.9999404
9.9999404
9.9999404
9.9999404
9.9999404
9.9999404
9.9999404
9.9999404
9.9999404
9.9999404
9.9999404
9.9999404
9.9999404
9.9999404
9.9999404
9.9999404
9.9999404
9.9999404
9.9999404
9.9999404
9.9999404
9.9999404
9.9999404
9.9999404
1168.9642
10.141457
10.000047
10.00485
10.004729
10.001591
10.002679
10.004992
10.005831
10.004221
10.007542
10.007345
10.00572
10.001868
9.9998999
9.9999141
9.9999473
9.9999492
9.9999469
9.9999461
9.999946
9.999946
9.999946
9.9999459
9.9999457
9.9999453
9.9999447
9.9999441
9.9999435
9.9999429
9.9999424
9.999942
9.9999416
9.9999414
9.9999412
9.999941
9.9999409
9.9999408
9.9999407
9.9999406
9.9999406
9.9999405
9.9999405
9.9999405
9.9999405
9.9999405
9.9999404
9.9999404
9.9999404
9.9999404
9.9999404
9.9999404
9.9999404
9.9999404
9.9999404
9.9999404
9.9999404
9.9999404
9.9999404
9.9999404
9.9999404
9.9999404
9.9999404
9.9999404
9.9999404
9.9999404
9.9999404
9.9999404
9.9999404
9.9999404
9.9999404
9.9999404
9.9999404
9.9999404
9.9999404
9.9999404
9.9999404
9.9999404
9.9999404
9.9999404
1198.1515
10.632356
9.9996269
10.008532
10.004224
10.002921
10.002662
10.006156
10.008317
10.004968
10.009455
10.009832
10.008023
10.00383
10.00013
9.9998971
9.9999462
9.9999504
9.9999474
9.9999462
9.999946
9.999946
9.999946
9.9999459
9.9999457
9.9999454
9.9999448
9.9999442
9.9999436
9.999943
9.9999425
9.999942
9.9999417
9.9999414
9.9999412
9.999941
9.9999409
9.9999408
9.9999407
9.9999407
9.9999406
9.9999406
9.9999405
9.9999405
9.9999405
9.9999405
9.9999404
9.9999404
9.9999404
9.9999404
9.9999404
9.9999404
9.9999404
9.9999404
9.9999404
9.9999404
9.9999404
9.9999404
9.9999404
9.9999404
9.9999404
9.9999404
9.9999404
9.9999404
9.9999404
9.9999404
9.9999404
9.9999404
9.9999404
9.9999404
9.9999404
9.9999404
9.9999404
9.9999404
9.9999404
9.9999404
9.9999404
9.9999404
9.9999404
9.9999404
1225.5016
11.29818
9.9993455
10.012902
10.003425
10.004756
10.003075
10.007774
10.011496
10.005986
10.011483
10.012447
10.010606
10.00553
10.00073
9.9998871
9.9999433
9.9999516
9.9999482
9.9999463
9.999946
9.999946
9.999946
9.9999459
9.9999458
9.9999454
9.9999449
9.9999443
9.9999437
9.9999431
9.9999425
9.9999421
9.9999418
9.9999415
9.9999412
9.9999411
9.9999409
9.9999408
9.9999407
9.9999407
9.9999406
9.9999406
9.9999405
9.9999405
9.9999405
9.9999405
9.9999404
9.9999404
9.9999404
9.9999404
9.9999404
9.9999404
9.9999404
9.9999404
9.9999404
9.9999404
9.9999404
9.9999404
9.9999404
9.9999404
9.9999404
9.9999404
9.9999404
9.9999404
9.9999404
9.9999404
9.9999404
9.9999404
9.9999404
9.9999404
9.9999404
9.9999404
9.9999404
9.9999404
9.9999404
9.9999404
9.9999404
9.9999404
9.9999404
9.9999404
1251.0012
12.105339
9.99917
10.018403
10.0037
10.006544
10.004147
10.009679
10.015176
10.006789
10.0134
10.015202
10.013461
10.007302
10.001877
9.9999005
9.9999382
9.9999528
9.9999492
9.9999465
9.999946
9.999946
9.999946
9.9999459
9.9999458
9.9999455
9.9999451
9.9999445
9.9999438
9.9999432
9.9999427
9.9999422
9.9999418
9.9999415
9.9999413
9.9999411
9.999941
9.9999408
9.9999407
9.9999407
9.9999406
9.9999406
9.9999405
9.9999405
9.9999405
9.9999405
9.9999404
9.9999404
9.9999404
9.9999404
9.9999404
9.9999404
9.9999404
9.9999404
9.9999404
9.9999404
9.9999404
9.9999404
9.9999404
9.9999404
9.9999404
9.9999404
9.9999404
9.9999404
9.9999404
9.9999404
9.9999404
9.9999404
9.9999404
9.9999404
9.9999404
9.9999404
9.9999404
9.9999404
9.9999404
9.9999404
9.9999404
9.9999404
9.9999404
9.9999404
1274.6914
13.20022
9.9991202
10.024603
10.0058
10.008564
10.005528
10.011156
10.019009
10.007077
10.015132
10.018177
10.01659
10.00933
10.003263
9.9999644
9.9999304
9.9999541
9.9999503
9.9999467
9.999946
9.999946
9.999946
9.999946
9.9999458
9.9999456
9.9999451
9.9999446
9.9999439
9.9999433
9.9999427
9.9999423
9.9999419
9.9999416
9.9999413
9.9999411
9.999941
9.9999409
9.9999408
9.9999407
9.9999406
9.9999406
9.9999405
9.9999405
9.9999405
9.9999405
9.9999404
9.9999404
9.9999404
9.9999404
9.9999404
9.9999404
9.9999404
9.9999404
9.9999404
9.9999404
9.9999404
9.9999404
9.9999404
9.9999404
9.9999404
9.9999404
9.9999404
9.9999404
9.9999404
9.9999404
9.9999404
9.9999404
9.9999404
9.9999404
9.9999404
9.9999404
9.9999404
9.9999404
9.9999404
9.9999404
9.9999404
9.9999404
9.9999404
9.9999404
1296.6778
14.550345
9.9975593
10.031653
10.009403
10.010575
10.006923
10.011674
10.023247
10.00661
10.017243
10.021399
10.019978
10.011613
10.004775
10.00012
9.9999198
9.9999553
9.9999516
9.999947
9.999946
9.999946
9.999946
9.999946
9.9999459
9.9999456
9.9999452
9.9999446
9.999944
9.9999434
9.9999428
9.9999423
9.9999419
9.9999416
9.9999414
9.9999412
9.999941
9.9999409
9.9999408
9.9999407
9.9999406
9.9999406
9.9999405
9.9999405
9.9999405
9.9999405
9.9999404
9.9999404
9.9999404
9.9999404
9.9999404
9.9999404
9.9999404
9.9999404
9.9999404
9.9999404
9.9999404
9.9999404
9.9999404
9.9999404
9.9999404
9.9999404
9.9999404
9.9999404
9.9999404
9.9999404
9.9999404
9.9999404
9.9999404
9.9999404
9.9999404
9.9999404
9.9999404
9.9999404
9.9999404
9.9999404
9.9999404
9.9999404
9.9999404
9.9999404
1317.0691
16.160747
9.9927547
10.040157
10.01439
10.012469
10.008103
10.011162
10.027676
10.006667
10.018918
10.024948
10.023646
10.014164
10.006338
10.000429
9.9999069
9.9999566
9.9999531
9.9999474
9.999946
9.999946
9.999946
9.999946
9.9999459
9.9999457
9.9999453
9.9999447
9.9999441
9.9999434
9.9999429
9.9999424
9.999942
9.9999416
9.9999414
9.9999412
9.999941
9.9999409
9.9999408
9.9999407
9.9999406
9.9999406
9.9999405
9.9999405
9.9999405
9.9999405
9.9999405
9.9999404
9.9999404
9.9999404
9.9999404
9.9999404
9.9999404
9.9999404
9.9999404
9.9999404
9.9999404
9.9999404
9.9999404
9.9999404
9.9999404
9.9999404
9.9999404
9.9999404
9.9999404
9.9999404
9.9999404
9.9999404
9.9999404
9.9999404
9.9999404
9.9999404
9.9999404
9.9999404
9.9999404
9.9999404
9.9999404
9.9999404
9.9999404
9.9999404
1335.9291
18.099976
9.9844947
10.049196
10.019797
10.014536
10.008876
10.010397
10.031866
10.007797
10.01979
10.028854
10.027618
10.017002
10.007964
10.000974
9.9998928
9.9999577
9.9999546
9.9999478
9.999946
9.999946
9.999946
9.999946
9.9999459
9.9999457
9.9999453
9.9999448
9.9999441
9.9999435
9.999943
9.9999424
9.999942
9.9999417
9.9999414
9.9999412
9.999941
9.9999409
9.9999408
9.9999407
9.9999406
9.9999406
9.9999405
9.9999405
9.9999405
9.9999405
9.9999405
9.9999404
9.9999404
9.9999404
9.9999404
9.9999404
9.9999404
9.9999404
9.9999404
9.9999404
9.9999404
9.9999404
9.9999404
9.9999404
9.9999404
9.9999404
9.9999404
9.9999404
9.9999404
9.9999404
9.9999404
9.9999404
9.9999404
9.9999404
9.9999404
9.9999404
9.9999404
9.9999404
9.9999404
9.9999404
9.9999404
9.9999404
9.9999404
9.9999404
1353.3603
20.561297
9.9834627
10.056753
10.024942
10.016718
10.00959
10.009931
10.035908
10.009975
10.01986
10.033076
10.031937
10.020155
10.00981
10.001762
9.9998798
9.9999585
9.9999563
9.9999484
9.9999461
9.999946
9.999946
9.999946
9.9999459
9.9999457
9.9999454
9.9999449
9.9999442
9.9999436
9.999943
9.9999425
9.9999421
9.9999417
9.9999414
9.9999412
9.999941
9.9999409
9.9999408
9.9999407
9.9999407
9.9999406
9.9999406
9.9999405
9.9999405
9.9999405
9.9999405
9.9999404
9.9999404
9.9999404
9.9999404
9.9999404
9.9999404
9.9999404
9.9999404
9.9999404
9.9999404
9.9999404
9.9999404
9.9999404
9.9999404
9.9999404
9.9999404
9.9999404
9.9999404
9.9999404
9.9999404
9.9999404
9.9999404
9.9999404
9.9999404
9.9999404
9.9999404
9.9999404
9.9999404
9.9999404
9.9999404
9.9999404
9.9999404
9.9999404
1369.7253
23.475043
9.9930589
10.065699
10.029633
10.019241
10.010484
10.010017
10.03999
10.012808
10.019644
10.037517
10.036636
10.02366
10.011903
10.002673
9.9998715
9.999959
9.9999582
9.9999491
9.9999462
9.9999459
9.999946
9.999946
9.9999459
9.9999458
9.9999454
9.9999449
9.9999443
9.9999436
9.999943
9.9999425
9.9999421
9.9999417
9.9999415
9.9999412
9.9999411
9.9999409
9.9999408
9.9999407
9.9999407
9.9999406
9.9999406
9.9999405
9.9999405
9.9999405
9.9999405
9.9999404
9.9999404
9.9999404
9.9999404
9.9999404
9.9999404
9.9999404
9.9999404
9.9999404
9.9999404
9.9999404
9.9999404
9.9999404
9.9999404
9.9999404
9.9999404
9.9999404
9.9999404
9.9999404
9.9999404
9.9999404
9.9999404
9.9999404
9.9999404
9.9999404
9.9999404
9.9999404
9.9999404
9.9999404
9.9999404
9.9999404
9.9999404
9.9999404
1385.472
26.791886
9.9986331
10.076586
10.034364
10.022227
10.01182
10.010791
10.044058
10.01613
10.019388
10.042181
10.041748
10.027561
10.014275
10.003713
9.9998739
9.9999589
9.9999602
9.9999499
9.9999462
9.9999459
9.999946
9.999946
9.9999459
9.9999458
9.9999454
9.9999449
9.9999443
9.9999437
9.9999431
9.9999425
9.9999421
9.9999418
9.9999415
9.9999413
9.9999411
9.9999409
9.9999408
9.9999407
9.9999407
9.9999406
9.9999406
9.9999405
9.9999405
9.9999405
9.9999405
9.9999404
9.9999404
9.9999404
9.9999404
9.9999404
9.9999404
9.9999404
9.9999404
9.9999404
9.9999404
9.9999404
9.9999404
9.9999404
9.9999404
9.9999404
9.9999404
9.9999404
9.9999404
9.9999404
9.9999404
9.9999404
9.9999404
9.9999404
9.9999404
9.9999404
9.9999404
9.9999404
9.9999404
9.9999404
9.9999404
9.9999404
9.9999404
9.9999404
1400.7523
30.762979
9.9979709
10.088585
10.039262
10.025494
10.013767
10.012391
10.047967
10.01983
10.019229
10.047074
10.047299
10.031902
10.016954
10.004889
9.9998964
9.9999582
9.9999624
9.9999509
9.9999464
9.9999459
9.999946
9.999946
9.9999459
9.9999458
9.9999455
9.999945
9.9999444
9.9999438
9.9999431
9.9999426
9.9999422
9.9999418
9.9999415
9.9999413
9.9999411
9.9999409
9.9999408
9.9999407
9.9999407
9.9999406
9.9999406
9.9999405
9.9999405
9.9999405
9.9999405
9.9999404
9.9999404
9.9999404
9.9999404
9.9999404
9.9999404
9.9999404
9.9999404
9.9999404
9.9999404
9.9999404
9.9999404
9.9999404
9.9999404
9.9999404
9.9999404
9.9999404
9.9999404
9.9999404
9.9999404
9.9999404
9.9999404
9.9999404
9.9999404
9.9999404
9.9999404
9.9999404
9.9999404
9.9999404
9.9999404
9.9999404
9.9999404
9.9999404
1415.6714
35.715805
9.9959702
10.101461
10.04442
10.027708
10.016265
10.01517
10.051619
10.023837
10.01945
10.052164
10.053335
10.036738
10.019974
10.006199
9.9999532
9.9999567
9.9999647
9.999952
9.9999465
9.9999459
9.999946
9.999946
9.9999459
9.9999458
9.9999455
9.999945
9.9999444
9.9999438
9.9999432
9.9999426
9.9999422
9.9999418
9.9999415
9.9999413
9.9999411
9.9999409
9.9999408
9.9999407
9.9999407
9.9999406
9.9999406
9.9999405
9.9999405
9.9999405
9.9999405
9.9999404
9.9999404
9.9999404
9.9999404
9.9999404
9.9999404
9.9999404
9.9999404
9.9999404
9.9999404
9.9999404
9.9999404
9.9999404
9.9999404
9.9999404
9.9999404
9.9999404
9.9999404
9.9999404
9.9999404
9.9999404
9.9999404
9.9999404
9.9999404
9.9999404
9.9999404
9.9999404
9.9999404
9.9999404
9.9999404
9.9999404
9.9999404
9.9999404
1430.6032
41.772176
9.9921281
10.123065
10.048602
10.03121
10.019591
10.019375
10.055254
10.028298
10.020323
10.057693
10.059999
10.042156
10.023369
10.007608
10.000064
9.9999544
9.9999672
9.9999533
9.9999467
9.9999459
9.999946
9.999946
9.999946
9.9999458
9.9999455
9.999945
9.9999444
9.9999438
9.9999432
9.9999426
9.9999422
9.9999418
9.9999415
9.9999413
9.9999411
9.9999409
9.9999408
9.9999407
9.9999407
9.9999406
9.9999406
9.9999405
9.9999405
9.9999405
9.9999405
9.9999404
9.9999404
9.9999404
9.9999404
9.9999404
9.9999404
9.9999404
9.9999404
9.9999404
9.9999404
9.9999404
9.9999404
9.9999404
9.9999404
9.9999404
9.9999404
9.9999404
9.9999404
9.9999404
9.9999404
9.9999404
9.9999404
9.9999404
9.9999404
9.9999404
9.9999404
9.9999404
9.9999404
9.9999404
9.9999404
9.9999404
9.9999404
9.9999404
1445.3414
49.072415
9.9893887
10.140939
10.054159
10.030834
10.024167
10.02483
10.059681
10.033802
10.0221
10.06399
10.067577
10.0483
10.027183
10.009131
10.000252
9.9999516
9.9999699
9.9999548
9.9999468
9.9999459
9.9999459
9.999946
9.999946
9.9999458
9.9999455
9.999945
9.9999444
9.9999438
9.9999432
9.9999427
9.9999422
9.9999418
9.9999415
9.9999413
9.9999411
9.9999409
9.9999408
9.9999407
9.9999407
9.9999406
9.9999406
9.9999405
9.9999405
9.9999405
9.9999405
9.9999404
9.9999404
9.9999404
9.9999404
9.9999404
9.9999404
9.9999404
9.9999404
9.9999404
9.9999404
9.9999404
9.9999404
9.9999404
9.9999404
9.9999404
9.9999404
9.9999404
9.9999404
9.9999404
9.9999404
9.9999404
9.9999404
9.9999404
9.9999404
9.9999404
9.9999404
9.9999404
9.9999404
9.9999404
9.9999404
9.9999404
9.9999404
9.9999404
1459.4513
57.907773
9.9829656
10.172851
10.060578
10.039604
10.029523
10.031533
10.064886
10.041048
10.024789
10.071091
10.076188
10.055238
10.031426
10.010814
10.000539
9.9999489
9.9999728
9.9999564
9.9999471
9.9999459
9.9999459
9.999946
9.999946
9.9999458
9.9999455
9.9999451
9.9999445
9.9999438
9.9999432
9.9999427
9.9999422
9.9999418
9.9999415
9.9999413
9.9999411
9.9999409
9.9999408
9.9999407
9.9999407
9.9999406
9.9999406
9.9999405
9.9999405
9.9999405
9.9999405
9.9999404
9.9999404
9.9999404
9.9999404
9.9999404
9.9999404
9.9999404
9.9999404
9.9999404
9.9999404
9.9999404
9.9999404
9.9999404
9.9999404
9.9999404
9.9999404
9.9999404
9.9999404
9.9999404
9.9999404
9.9999404
9.9999404
9.9999404
9.9999404
9.9999404
9.9999404
9.9999404
9.9999404
9.9999404
9.9999404
9.9999404
9.9999404
9.9999404
1472.1706
69.810437
9.9674554
10.208698
10.064924
10.034483
10.039595
10.038276
10.072166
10.048345
10.027844
10.078307
10.0854
10.062688
10.035942
10.012585
10.000915
9.9999467
9.9999758
9.9999579
9.9999473
9.9999459
9.9999459
9.999946
9.999946
9.9999458
9.9999455
9.9999451
9.9999445
9.9999438
9.9999432
9.9999426
9.9999422
9.9999418
9.9999415
9.9999413
9.9999411
9.9999409
9.9999408
9.9999407
9.9999407
9.9999406
9.9999406
9.9999405
9.9999405
9.9999405
9.9999405
9.9999404
9.9999404
9.9999404
9.9999404
9.9999404
9.9999404
9.9999404
9.9999404
9.9999404
9.9999404
9.9999404
9.9999404
9.9999404
9.9999404
9.9999404
9.9999404
9.9999404
9.9999404
9.9999404
9.9999404
9.9999404
9.9999404
9.9999404
9.9999404
9.9999404
9.9999404
9.9999404
9.9999404
9.9999404
9.9999404
9.9999404
9.9999404
9.9999404
1485.2487
83.651044
9.9528897
10.212825
10.074873
10.015718
10.057493
10.048543
10.07904
10.050701
10.030506
10.086337
10.094431
10.06992
10.04034
10.014273
10.001271
9.9999457
9.9999788
9.9999593
9.9999474
9.9999459
9.9999459
9.999946
9.9999459
9.9999458
9.9999455
9.999945
9.9999444
9.9999438
9.9999432
9.9999426
9.9999422
9.9999418
9.9999415
9.9999413
9.9999411
9.9999409
9.9999408
9.9999407
9.9999407
9.9999406
9.9999406
9.9999405
9.9999405
9.9999405
9.9999405
9.9999404
9.9999404
9.9999404
9.9999404
9.9999404
9.9999404
9.9999404
9.9999404
9.9999404
9.9999404
9.9999404
9.9999404
9.9999404
9.9999404
9.9999404
9.9999404
9.9999404
9.9999404
9.9999404
9.9999404
9.9999404
9.9999404
9.9999404
9.9999404
9.9999404
9.9999404
9.9999404
9.9999404
9.9999404
9.9999404
9.9999404
9.9999404
9.9999404
1495.8708
95.532777
9.9248336
10.252727
10.087499
10.02664
10.070573
10.050463
10.086269
10.051727
10.029057
10.095308
10.102699
10.076326
10.044098
10.015592
10.001517
9.9999468
9.9999814
9.9999603
9.9999475
9.9999459
9.9999459
9.999946
9.9999459
9.9999458
9.9999455
9.999945
9.9999444
9.9999437
9.9999431
9.9999426
9.9999421
9.9999418
9.9999415
9.9999412
9.9999411
9.9999409
9.9999408
9.9999407
9.9999407
9.9999406
9.9999406
9.9999405
9.9999405
9.9999405
9.9999405
9.9999404
9.9999404
9.9999404
9.9999404
9.9999404
9.9999404
9.9999404
9.9999404
9.9999404
9.9999404
9.9999404
9.9999404
9.9999404
9.9999404
9.9999404
9.9999404
9.9999404
9.9999404
9.9999404
9.9999404
9.9999404
9.9999404
9.9999404
9.9999404
9.9999404
9.9999404
9.9999404
9.9999404
9.9999404
9.9999404
9.9999404
9.9999404
9.9999404
1503.3743
104.737
9.9049388
10.30363
10.093245
10.023483
10.080176
10.045014
10.092884
10.051615
10.026241
10.103777
10.109966
10.08135
10.046648
10.016216
10.001567
9.9999506
9.9999833
9.9999605
9.9999475
9.9999459
9.9999459
9.999946
9.9999459
9.9999458
9.9999454
9.9999449
9.9999443
9.9999436
9.999943
9.9999425
9.9999421
9.9999417
9.9999414
9.9999412
9.999941
9.9999409
9.9999408
9.9999407
9.9999406
9.9999406
9.9999406
9.9999405
9.9999405
9.9999405
9.9999405
9.9999404
9.9999404
9.9999404
9.9999404
9.9999404
9.9999404
9.9999404
9.9999404
9.9999404
9.9999404
9.9999404
9.9999404
9.9999404
9.9999404
9.9999404
9.9999404
9.9999404
9.9999404
9.9999404
9.9999404
9.9999404
9.9999404
9.9999404
9.9999404
9.9999404
9.9999404
9.9999404
9.9999404
9.9999404
9.9999404
9.9999404
9.9999404
9.9999404
1508.8009
109.63573
9.9001625
10.374509
10.094689
10.023424
10.08134
10.035758
10.088737
10.052782
10.03632
10.109711
10.116221
10.084361
10.047459
10.01589
10.00137
9.9999573
9.999984
9.9999599
9.9999473
9.9999459
9.9999459
9.999946
9.9999459
9.9999458
9.9999454
9.9999449
9.9999442
9.9999436
9.999943
9.9999425
9.999942
9.9999417
9.9999414
9.9999412
9.999941
9.9999409
9.9999408
9.9999407
9.9999406
9.9999406
9.9999405
9.9999405
9.9999405
9.9999405
9.9999405
9.9999404
9.9999404
9.9999404
9.9999404
9.9999404
9.9999404
9.9999404
9.9999404
9.9999404
9.9999404
9.9999404
9.9999404
9.9999404
9.9999404
9.9999404
9.9999404
9.9999404
9.9999404
9.9999404
9.9999404
9.9999404
9.9999404
9.9999404
9.9999404
9.9999404
9.9999404
9.9999404
9.9999404
9.9999404
9.9999404
9.9999404
9.9999404
9.9999404
1497.1432
116.75769
9.9126942
10.416002
10.101167
10.086234
10.09419
10.079452
10.101682
10.056815
10.058967
10.113319
10.121592
10.084957
10.046254
10.014585
10.000961
9.9999664
9.9999835
9.9999583
9.999947
9.9999459
9.9999459
9.999946
9.9999459
9.9999457
9.9999453
9.9999448
9.9999441
9.9999435
9.9999429
9.9999424
9.999942
9.9999417
9.9999414
9.9999412
9.999941
9.9999409
9.9999408
9.9999407
9.9999406
9.9999406
9.9999405
9.9999405
9.9999405
9.9999405
9.9999405
9.9999404
9.9999404
9.9999404
9.9999404
9.9999404
9.9999404
9.9999404
9.9999404
9.9999404
9.9999404
9.9999404
9.9999404
9.9999404
9.9999404
9.9999404
9.9999404
9.9999404
9.9999404
9.9999404
9.9999404
9.9999404
9.9999404
9.9999404
9.9999404
9.9999404
9.9999404
9.9999404
9.9999404
9.9999404
9.9999404
9.9999404
9.9999404
9.9999404
1452.2171
126.6494
9.9180308
10.461875
10.118322
10.173432
10.09999
10.081656
10.127
10.06375
10.069111
10.119127
10.124839
10.083119
10.043139
10.012568
10.000471
9.9999759
9.9999818
9.9999562
9.9999467
9.9999458
9.9999459
9.999946
9.9999459
9.9999457
9.9999453
9.9999447
9.9999441
9.9999435
9.9999429
9.9999424
9.999942
9.9999416
9.9999414
9.9999412
9.999941
9.9999409
9.9999408
9.9999407
9.9999406
9.9999406
9.9999405
9.9999405
9.9999405
9.9999405
9.9999405
9.9999404
9.9999404
9.9999404
9.9999404
9.9999404
9.9999404
9.9999404
9.9999404
9.9999404
9.9999404
9.9999404
9.9999404
9.9999404
9.9999404
9.9999404
9.9999404
9.9999404
9.9999404
9.9999404
9.9999404
9.9999404
9.9999404
9.9999404
9.9999404
9.9999404
9.9999404
9.9999404
9.9999404
9.9999404
9.9999404
9.9999404
9.9999404
9.9999404
1387.1529
126.47004
9.82674
10.397314
10.152027
10.219713
10.086936
10.08192
10.141679
10.071863
10.078235
10.12581
10.125713
10.079785
10.039027
10.010495
10.000146
9.999983
9.9999793
9.9999542
9.9999464
9.9999459
9.9999459
9.999946
9.9999459
9.9999457
9.9999453
9.9999447
9.999944
9.9999434
9.9999428
9.9999423
9.9999419
9.9999416
9.9999414
9.9999412
9.999941
9.9999409
9.9999408
9.9999407
9.9999406
9.9999406
9.9999405
9.9999405
9.9999405
9.9999405
9.9999405
9.9999404
9.9999404
9.9999404
9.9999404
9.9999404
9.9999404
9.9999404
9.9999404
9.9999404
9.9999404
9.9999404
9.9999404
9.9999404
9.9999404
9.9999404
9.9999404
9.9999404
9.9999404
9.9999404
9.9999404
9.9999404
9.9999404
9.9999404
9.9999404
9.9999404
9.9999404
9.9999404
9.9999404
9.9999404
9.9999404
9.9999404
9.9999404
9.9999404
1317.1037
100.87048
10.000412
10.342491
10.195107
10.223047
10.080801
10.079293
10.143638
10.076074
10.085149
10.128831
10.125541
10.076514
10.035569
10.009024
10.000009
9.9999865
9.9999768
9.9999528
9.9999462
9.9999459
9.999946
9.999946
9.9999459
9.9999456
9.9999452
9.9999447
9.999944
9.9999434
9.9999428
9.9999424
9.999942
9.9999416
9.9999414
9.9999412
9.999941
9.9999409
9.9999408
9.9999407
9.9999406
9.9999406
9.9999405
9.9999405
9.9999405
9.9999405
9.9999405
9.9999404
9.9999404
9.9999404
9.9999404
9.9999404
9.9999404
9.9999404
9.9999404
9.9999404
9.9999404
9.9999404
9.9999404
9.9999404
9.9999404
9.9999404
9.9999404
9.9999404
9.9999404
9.9999404
9.9999404
9.9999404
9.9999404
9.9999404
9.9999404
9.9999404
9.9999404
9.9999404
9.9999404
9.9999404
9.9999404
9.9999404
9.9999404
9.9999404
1248.7859
75.892746
10.108635
10.274522
10.207386
10.197484
10.077485
10.073366
10.145524
10.0757
10.092133
10.129117
10.12631
10.075469
10.034593
10.008645
9.9999873
9.9999872
9.9999761
9.9999524
9.9999462
9.9999459
9.999946
9.999946
9.9999459
9.9999456
9.9999452
9.9999447
9.9999441
9.9999434
9.9999429
9.9999424
9.999942
9.9999417
9.9999414
9.9999412
9.999941
9.9999409
9.9999408
9.9999407
9.9999406
9.9999406
9.9999406
9.9999405
9.9999405
9.9999405
9.9999405
9.9999404
9.9999404
9.9999404
9.9999404
9.9999404
9.9999404
9.9999404
9.9999404
9.9999404
9.9999404
9.9999404
9.9999404
9.9999404
9.9999404
9.9999404
9.9999404
9.9999404
9.9999404
9.9999404
9.9999404
9.9999404
9.9999404
9.9999404
9.9999404
9.9999404
9.9999404
9.9999404
9.9999404
9.9999404
9.9999404
9.9999404
9.9999404
9.9999404
1222.8951
70.919677
10.181798
10.20091
10.195321
10.092916
10.077328
10.070977
10.16071
10.070314
10.09551
10.126582
10.128844
10.078424
10.037888
10.010101
10.00015
9.9999788
9.9999778
9.9999541
9.9999464
9.9999459
9.9999459
9.999946
9.9999459
9.9999457
9.9999453
9.9999448
9.9999442
9.9999436
9.999943
9.9999425
9.9999421
9.9999417
9.9999415
9.9999412
9.9999411
9.9999409
9.9999408
9.9999407
9.9999407
9.9999406
9.9999406
9.9999405
9.9999405
9.9999405
9.9999405
9.9999404
9.9999404
9.9999404
9.9999404
9.9999404
9.9999404
9.9999404
9.9999404
9.9999404
9.9999404
9.9999404
9.9999404
9.9999404
9.9999404
9.9999404
9.9999404
9.9999404
9.9999404
9.9999404
9.9999404
9.9999404
9.9999404
9.9999404
9.9999404
9.9999404
9.9999404
9.9999404
9.9999404
9.9999404
9.9999404
9.9999404
9.9999404
9.9999404
1037.9007
10.208436
10.07655
9.9945405
10.011271
10.026364
10.003177
10.008868
10.006249
10.029532
10.054009
10.040147
10.021481
10.006507
10.000309
9.9999427
9.999935
9.9999417
9.9999457
9.999946
9.999946
9.999946
9.9999459
9.9999456
9.9999452
9.9999447
9.999944
9.9999434
9.9999428
9.9999423
9.9999419
9.9999416
9.9999413
9.9999411
9.999941
9.9999409
9.9999408
9.9999407
9.9999406
9.9999406
9.9999405
9.9999405
9.9999405
9.9999405
9.9999404
9.9999404
9.9999404
9.9999404
9.9999404
9.9999404
9.9999404
9.9999404
9.9999404
9.9999404
9.9999404
9.9999404
9.9999404
9.9999404
9.9999404
9.9999404
9.9999404
9.9999404
9.9999404
9.9999404
9.9999404
9.9999404
9.9999404
9.9999404
9.9999404
9.9999404
9.9999404
9.9999404
9.9999404
9.9999404
9.9999404
9.9999404
9.9999404
9.9999404
9.9999404
9.9999404
1040.132
9.9707232
10.071695
9.9883693
10.00771
10.004048
10.013244
10.008239
9.9995307
10.033358
10.053049
10.040061
10.023069
10.007871
10.000492
9.9999516
9.9999341
9.9999406
9.9999455
9.999946
9.999946
9.999946
9.9999459
9.9999456
9.9999452
9.9999447
9.999944
9.9999434
9.9999428
9.9999423
9.9999419
9.9999416
9.9999414
9.9999411
9.999941
9.9999409
9.9999408
9.9999407
9.9999406
9.9999406
9.9999405
9.9999405
9.9999405
9.9999405
9.9999404
9.9999404
9.9999404
9.9999404
9.9999404
9.9999404
9.9999404
9.9999404
9.9999404
9.9999404
9.9999404
9.9999404
9.9999404
9.9999404
9.9999404
9.9999404
9.9999404
9.9999404
9.9999404
9.9999404
9.9999404
9.9999404
9.9999404
9.9999404
9.9999404
9.9999404
9.9999404
9.9999404
9.9999404
9.9999404
9.9999404
9.9999404
9.9999404
9.9999404
9.9999404
9.9999404
1042.017
9.9428278
10.064713
9.9956668
10.003229
10.010548
10.005266
10.006019
9.9997433
10.036041
10.05306
10.039486
10.022678
10.007779
10.000501
9.9999534
9.9999345
9.9999406
9.9999454
9.999946
9.999946
9.999946
9.9999459
9.9999456
9.9999452
9.9999447
9.999944
9.9999434
9.9999428
9.9999423
9.9999419
9.9999416
9.9999414
9.9999412
9.999941
9.9999409
9.9999408
9.9999407
9.9999406
9.9999406
9.9999405
9.9999405
9.9999405
9.9999405
9.9999404
9.9999404
9.9999404
9.9999404
9.9999404
9.9999404
9.9999404
9.9999404
9.9999404
9.9999404
9.9999404
9.9999404
9.9999404
9.9999404
9.9999404
9.9999404
9.9999404
9.9999404
9.9999404
9.9999404
9.9999404
9.9999404
9.9999404
9.9999404
9.9999404
9.9999404
9.9999404
9.9999404
9.9999404
9.9999404
9.9999404
9.9999404
9.9999404
9.9999404
9.9999404
9.9999404
1043.5468
9.94699
10.067391
9.9946693
10.007333
10.006385
10.006599
10.00593
10.004465
10.034932
10.051512
10.038583
10.022211
10.007636
10.000493
9.9999538
9.9999349
9.9999407
9.9999454
9.999946
9.999946
9.999946
9.9999459
9.9999456
9.9999452
9.9999446
9.999944
9.9999434
9.9999428
9.9999423
9.9999419
9.9999416
9.9999414
9.9999412
9.999941
9.9999409
9.9999408
9.9999407
9.9999406
9.9999406
9.9999405
9.9999405
9.9999405
9.9999405
9.9999405
9.9999404
9.9999404
9.9999404
9.9999404
9.9999404
9.9999404
9.9999404
9.9999404
9.9999404
9.9999404
9.9999404
9.9999404
9.9999404
9.9999404
9.9999404
9.9999404
9.9999404
9.9999404
9.9999404
9.9999404
9.9999404
9.9999404
9.9999404
9.9999404
9.9999404
9.9999404
9.9999404
9.9999404
9.9999404
9.9999404
9.9999404
9.9999404
9.9999404
9.9999404
9.9999404
1045.0054
9.9484511
10.065049
9.9947601
10.007211
10.006774
10.006311
10.005821
10.004343
10.033559
10.050043
10.037669
10.021763
10.007502
10.000487
9.9999544
9.9999352
9.9999408
9.9999454
9.999946
9.999946
9.999946
9.9999459
9.9999457
9.9999452
9.9999447
9.9999441
9.9999434
9.9999428
9.9999423
9.9999419
9.9999416
9.9999414
9.9999412
9.999941
9.9999409
9.9999408
9.9999407
9.9999406
9.9999406
9.9999405
9.9999405
9.9999405
9.9999405
9.9999405
9.9999404
9.9999404
9.9999404
9.9999404
9.9999404
9.9999404
9.9999404
9.9999404
9.9999404
9.9999404
9.9999404
9.9999404
9.9999404
9.9999404
9.9999404
9.9999404
9.9999404
9.9999404
9.9999404
9.9999404
9.9999404
9.9999404
9.9999404
9.9999404
9.9999404
9.9999404
9.9999404
9.9999404
9.9999404
9.9999404
9.9999404
9.9999404
9.9999404
9.9999404
9.9999404
1046.4434
9.951297
10.064312
9.9948341
10.006969
10.006714
10.006154
10.005678
10.004087
10.032254
10.048641
10.036791
10.021334
10.007374
10.000482
9.999955
9.9999354
9.9999409
9.9999454
9.999946
9.999946
9.999946
9.9999459
9.9999457
9.9999452
9.9999447
9.999944
9.9999434
9.9999428
9.9999424
9.999942
9.9999416
9.9999414
9.9999412
9.999941
9.9999409
9.9999408
9.9999407
9.9999406
9.9999406
9.9999405
9.9999405
9.9999405
9.9999405
9.9999405
9.9999404
9.9999404
9.9999404
9.9999404
9.9999404
9.9999404
9.9999404
9.9999404
9.9999404
9.9999404
9.9999404
9.9999404
9.9999404
9.9999404
9.9999404
9.9999404
9.9999404
9.9999404
9.9999404
9.9999404
9.9999404
9.9999404
9.9999404
9.9999404
9.9999404
9.9999404
9.9999404
9.9999404
9.9999404
9.9999404
9.9999404
9.9999404
9.9999404
9.9999404
9.9999404
1047.8715
9.9539718
10.063082
9.9949431
10.006667
10.006721
10.005947
10.005573
10.003875
10.031017
10.047277
10.035931
10.020909
10.007245
10.000476
9.9999556
9.9999357
9.9999409
9.9999454
9.999946
9.999946
9.999946
9.9999459
9.9999457
9.9999453
9.9999447
9.999944
9.9999434
9.9999429
9.9999424
9.999942
9.9999416
9.9999414
9.9999412
9.999941
9.9999409
9.9999408
9.9999407
9.9999406
9.9999406
9.9999405
9.9999405
9.9999405
9.9999405
9.9999405
9.9999404
9.9999404
9.9999404
9.9999404
9.9999404
9.9999404
9.9999404
9.9999404
9.9999404