/*--------------------------------*- C++ -*----------------------------------*\
| =========                 |                                                 |
| \\      /  F ield         | OpenFOAM: The Open Source CFD Toolbox           |
|  \\    /   O peration     | Version:  2406                                  |
|   \\  /    A nd           | Website:  www.openfoam.com                      |
|    \\/     M anipulation  |                                                 |
\*---------------------------------------------------------------------------*/
FoamFile
{
    version     2.0;
    format      ascii;
    arch        "LSB;label=32;scalar=64";
    class       volScalarField;
    location    "9e-05";
    object      p;
}
// * * * * * * * * * * * * * * * * * * * * * * * * * * * * * * * * * * * * * //

dimensions      [1 -1 -2 0 0 0 0];

internalField   nonuniform List<scalar> 
16000
(
100065.58
100013.59
100072.81
100024.36
100061.79
100030.55
100044.95
100036.08
100053.52
100049.6
100043.94
100023.98
100010.51
100001.99
100000.04
99999.846
99999.955
99999.993
100000
100000
100000
100000
100000
100000
100000
100000
100000
100000
100000
100000
100000
100000
100000
100000
100000
100000
100000
100000
100000
100000
100000
100000
100000
100000
100000
100000
100000
100000
100000
100000
100000
100000
100000
100000
100000
100000
100000
100000
100000
100000
100000
100000
100000
100000
100000
100000
100000
100000
100000
100000
100000
100000
100000
100000
100000
100000
100000
100000
100000
100000
100159.49
100120.63
100139.32
100127.02
100152.21
100131.09
100132.53
100129.83
100157.28
100158.72
100139.71
100082.79
100038.48
100010.95
100002.17
99999.975
99999.906
99999.958
99999.996
100000
100000
100000
100000
100000
100000
100000
100000
100000
100000
100000
100000
100000
100000
100000
100000
100000
100000
100000
100000
100000
100000
100000
100000
100000
100000
100000
100000
100000
100000
100000
100000
100000
100000
100000
100000
100000
100000
100000
100000
100000
100000
100000
100000
100000
100000
100000
100000
100000
100000
100000
100000
100000
100000
100000
100000
100000
100000
100000
100000
100000
100270.86
100226.91
100204.61
100248.6
100249.79
100238.94
100215.77
100231.79
100261.73
100275.39
100244.9
100153.19
100076.31
100024.62
100005.62
100000.34
99999.86
99999.913
99999.986
99999.999
100000
100000
100000
100000
100000
100000
100000
100000
100000
100000
100000
100000
100000
100000
100000
100000
100000
100000
100000
100000
100000
100000
100000
100000
100000
100000
100000
100000
100000
100000
100000
100000
100000
100000
100000
100000
100000
100000
100000
100000
100000
100000
100000
100000
100000
100000
100000
100000
100000
100000
100000
100000
100000
100000
100000
100000
100000
100000
100000
100000
100368.93
100346.31
100278.94
100378.66
100349.44
100349.47
100301.3
100335.15
100363.14
100397.69
100360.96
100236.42
100123.51
100042.4
100010.46
100000.91
99999.809
99999.861
99999.973
99999.998
100000
100000
100000
100000
100000
100000
100000
100000
100000
100000
100000
100000
100000
100000
100000
100000
100000
100000
100000
100000
100000
100000
100000
100000
100000
100000
100000
100000
100000
100000
100000
100000
100000
100000
100000
100000
100000
100000
100000
100000
100000
100000
100000
100000
100000
100000
100000
100000
100000
100000
100000
100000
100000
100000
100000
100000
100000
100000
100000
100000
100469.87
100466.11
100360.34
100511
100448.16
100459.4
100389
100443.76
100463.12
100524.65
100485.23
100330.85
100180.49
100065.16
100017.13
100001.84
99999.777
99999.798
99999.953
99999.996
100000
100000
100000
100000
100000
100000
100000
100000
100000
100000
100000
100000
100000
100000
100000
100000
100000
100000
100000
100000
100000
100000
100000
100000
100000
100000
100000
100000
100000
100000
100000
100000
100000
100000
100000
100000
100000
100000
100000
100000
100000
100000
100000
100000
100000
100000
100000
100000
100000
100000
100000
100000
100000
100000
100000
100000
100000
100000
100000
100000
100571.09
100599.52
100437.3
100649.53
100541.97
100578.57
100493.54
100547.52
100563.2
100654.02
100617.72
100436.41
100247.69
100093.43
100025.93
100003.25
99999.786
99999.726
99999.927
99999.992
100000
100000
100000
100000
100000
100000
100000
100000
100000
100000
100000
100000
100000
100000
100000
100000
100000
100000
100000
100000
100000
100000
100000
100000
100000
100000
100000
100000
100000
100000
100000
100000
100000
100000
100000
100000
100000
100000
100000
100000
100000
100000
100000
100000
100000
100000
100000
100000
100000
100000
100000
100000
100000
100000
100000
100000
100000
100000
100000
100000
100676.42
100743.06
100513.71
100796.76
100630.3
100712.13
100611.85
100647.86
100663.76
100788.93
100759.01
100553.08
100325.17
100127.63
100037.13
100005.24
99999.86
99999.644
99999.892
99999.987
100000
100000
100000
100000
100000
100000
100000
100000
100000
100000
100000
100000
100000
100000
100000
100000
100000
100000
100000
100000
100000
100000
100000
100000
100000
100000
100000
100000
100000
100000
100000
100000
100000
100000
100000
100000
100000
100000
100000
100000
100000
100000
100000
100000
100000
100000
100000
100000
100000
100000
100000
100000
100000
100000
100000
100000
100000
100000
100000
100000
100779.34
100903.05
100589.59
100958.5
100713.94
100860.28
100741.65
100742.22
100765.77
100933.32
100908.25
100681.3
100413.07
100168.1
100050.97
100007.91
100000.02
99999.553
99999.85
99999.98
100000
100000
100000
100000
100000
100000
100000
100000
100000
100000
100000
100000
100000
100000
100000
100000
100000
100000
100000
100000
100000
100000
100000
100000
100000
100000
100000
100000
100000
100000
100000
100000
100000
100000
100000
100000
100000
100000
100000
100000
100000
100000
100000
100000
100000
100000
100000
100000
100000
100000
100000
100000
100000
100000
100000
100000
100000
100000
100000
100000
100881.89
101078.66
100670
101134.2
100788.65
101023.66
100877.61
100846.22
100866.99
101089.28
101062.28
100820.35
100511.57
100215.19
100067.69
100011.38
100000.3
99999.453
99999.8
99999.971
100000
100000
100000
100000
100000
100000
100000
100000
100000
100000
100000
100000
100000
100000
100000
100000
100000
100000
100000
100000
100000
100000
100000
100000
100000
100000
100000
100000
100000
100000
100000
100000
100000
100000
100000
100000
100000
100000
100000
100000
100000
100000
100000
100000
100000
100000
100000
100000
100000
100000
100000
100000
100000
100000
100000
100000
100000
100000
100000
100000
100983.97
101272.56
100756.8
101323.6
100854.29
101203.08
101019.77
100965.79
100967.21
101247.37
101229.52
100971.54
100620.9
100269.25
100087.56
100015.74
100000.72
99999.346
99999.742
99999.959
100000
100000
100000
100000
100000
100000
100000
100000
100000
100000
100000
100000
100000
100000
100000
100000
100000
100000
100000
100000
100000
100000
100000
100000
100000
100000
100000
100000
100000
100000
100000
100000
100000
100000
100000
100000
100000
100000
100000
100000
100000
100000
100000
100000
100000
100000
100000
100000
100000
100000
100000
100000
100000
100000
100000
100000
100000
100000
100000
100000
101083.26
101493.92
100842.33
101533.18
100915.08
101398.11
101166.56
101098.75
101073.73
101407.18
101411.13
101133.35
100741.83
100330.87
100110.91
100021.11
100001.31
99999.234
99999.677
99999.944
100000
100000
100000
100000
100000
100000
100000
100000
100000
100000
100000
100000
100000
100000
100000
100000
100000
100000
100000
100000
100000
100000
100000
100000
100000
100000
100000
100000
100000
100000
100000
100000
100000
100000
100000
100000
100000
100000
100000
100000
100000
100000
100000
100000
100000
100000
100000
100000
100000
100000
100000
100000
100000
100000
100000
100000
100000
100000
100000
100000
101179.62
101755.18
100922.37
101768.1
100971.77
101616.24
101313.08
101245.11
101187.75
101568.83
101609.07
101307.98
100875.19
100400.83
100138.13
100027.65
100002.1
99999.121
99999.603
99999.925
100000
100000
100000
100000
100000
100000
100000
100000
100000
100000
100000
100000
100000
100000
100000
100000
100000
100000
100000
100000
100000
100000
100000
100000
100000
100000
100000
100000
100000
100000
100000
100000
100000
100000
100000
100000
100000
100000
100000
100000
100000
100000
100000
100000
100000
100000
100000
100000
100000
100000
100000
100000
100000
100000
100000
100000
100000
100000
100000
100000
101286.52
102055.54
100994.25
102033.6
101032.03
101854.43
101464.54
101403.15
101308.66
101738.57
101817.75
101498.43
101022.61
100480.07
100169.73
100035.53
100003.14
99999.011
99999.519
99999.902
99999.999
100000
100000
100000
100000
100000
100000
100000
100000
100000
100000
100000
100000
100000
100000
100000
100000
100000
100000
100000
100000
100000
100000
100000
100000
100000
100000
100000
100000
100000
100000
100000
100000
100000
100000
100000
100000
100000
100000
100000
100000
100000
100000
100000
100000
100000
100000
100000
100000
100000
100000
100000
100000
100000
100000
100000
100000
100000
100000
100000
101401.01
102389.4
101061.27
102331.84
101097.15
102112.25
101626.93
101574.44
101437.35
101917.65
102037.5
101705.86
101185.85
100569.83
100206.32
100044.95
100004.47
99998.907
99999.425
99999.875
99999.997
100000
100000
100000
100000
100000
100000
100000
100000
100000
100000
100000
100000
100000
100000
100000
100000
100000
100000
100000
100000
100000
100000
100000
100000
100000
100000
100000
100000
100000
100000
100000
100000
100000
100000
100000
100000
100000
100000
100000
100000
100000
100000
100000
100000
100000
100000
100000
100000
100000
100000
100000
100000
100000
100000
100000
100000
100000
100000
100000
101510.14
102781.16
101125.83
102673.73
101165.77
102395.29
101802.01
101764.76
101576.67
102107.82
102268.84
101931.65
101366.59
100671.48
100248.63
100056.18
100006.15
99998.813
99999.319
99999.842
99999.994
100000
100000
100000
100000
100000
100000
100000
100000
100000
100000
100000
100000
100000
100000
100000
100000
100000
100000
100000
100000
100000
100000
100000
100000
100000
100000
100000
100000
100000
100000
100000
100000
100000
100000
100000
100000
100000
100000
100000
100000
100000
100000
100000
100000
100000
100000
100000
100000
100000
100000
100000
100000
100000
100000
100000
100000
100000
100000
100000
101612.34
103254.95
101183.71
103073.23
101236.21
102711.32
101991.88
101981.68
101731.85
102313.23
102513.34
102179.24
101566.79
100786.43
100297.4
100069.48
100008.23
99998.736
99999.201
99999.803
99999.99
100000
100000
100000
100000
100000
100000
100000
100000
100000
100000
100000
100000
100000
100000
100000
100000
100000
100000
100000
100000
100000
100000
100000
100000
100000
100000
100000
100000
100000
100000
100000
100000
100000
100000
100000
100000
100000
100000
100000
100000
100000
100000
100000
100000
100000
100000
100000
100000
100000
100000
100000
100000
100000
100000
100000
100000
100000
100000
100000
101708.54
103818.51
101243.85
103541.81
101326.67
103069.7
102202.63
102230.68
101908.29
102541.33
102779.12
102454.75
101789.81
100916.35
100353.3
100085.05
100010.77
99998.678
99999.071
99999.758
99999.986
100000
100000
100000
100000
100000
100000
100000
100000
100000
100000
100000
100000
100000
100000
100000
100000
100000
100000
100000
100000
100000
100000
100000
100000
100000
100000
100000
100000
100000
100000
100000
100000
100000
100000
100000
100000
100000
100000
100000
100000
100000
100000
100000
100000
100000
100000
100000
100000
100000
100000
100000
100000
100000
100000
100000
100000
100000
100000
100000
101804.77
104510.83
101297.3
104101.53
101409.51
103470.37
102423.28
102511.03
102104.04
102795.94
103076.6
102767.63
102040.9
101063.15
100416.76
100102.94
100013.75
99998.639
99998.927
99999.706
99999.981
100000
100000
100000
100000
100000
100000
100000
100000
100000
100000
100000
100000
100000
100000
100000
100000
100000
100000
100000
100000
100000
100000
100000
100000
100000
100000
100000
100000
100000
100000
100000
100000
100000
100000
100000
100000
100000
100000
100000
100000
100000
100000
100000
100000
100000
100000
100000
100000
100000
100000
100000
100000
100000
100000
100000
100000
100000
100000
100000
101893.53
105326.58
101332.69
104748.06
101504.5
103945.28
102665.84
102811.98
102311.19
103069.57
103405.22
103120.17
102321.17
101226.97
100487.35
100122.85
100017.08
99998.608
99998.771
99999.651
99999.975
100000.01
100000
100000
100000
100000
100000
100000
100000
100000
100000
100000
100000
100000
100000
100000
100000
100000
100000
100000
100000
100000
100000
100000
100000
100000
100000
100000
100000
100000
100000
100000
100000
100000
100000
100000
100000
100000
100000
100000
100000
100000
100000
100000
100000
100000
100000
100000
100000
100000
100000
100000
100000
100000
100000
100000
100000
100000
100000
100000
101916.14
106489.12
101276.93
105637.26
101578.05
104427.29
102891.72
103112.18
102529.91
103368.13
103754.08
103493.82
102618.23
101400.98
100561.95
100143.81
100020.54
99998.572
99998.608
99999.595
99999.97
100000.01
100000
100000
100000
100000
100000
100000
100000
100000
100000
100000
100000
100000
100000
100000
100000
100000
100000
100000
100000
100000
100000
100000
100000
100000
100000
100000
100000
100000
100000
100000
100000
100000
100000
100000
100000
100000
100000
100000
100000
100000
100000
100000
100000
100000
100000
100000
100000
100000
100000
100000
100000
100000
100000
100000
100000
100000
100000
100000
101890.46
107947.84
101064.66
106562
101518.72
104924.24
103089.11
103525.09
102793.09
103711.36
104108.7
103850.48
102907.72
101568.55
100633.42
100163.46
100023.71
99998.509
99998.45
99999.545
99999.965
100000.01
100000
100000
100000
100000
100000
100000
100000
100000
100000
100000
100000
100000
100000
100000
100000
100000
100000
100000
100000
100000
100000
100000
100000
100000
100000
100000
100000
100000
100000
100000
100000
100000
100000
100000
100000
100000
100000
100000
100000
100000
100000
100000
100000
100000
100000
100000
100000
100000
100000
100000
100000
100000
100000
100000
100000
100000
100000
100000
101856.76
109457.52
100720.04
107508.85
101471.11
105511.65
103292.66
103946.12
103054.82
104066.7
104443.32
104165.6
103162.51
101709.4
100690.57
100178
100025.78
99998.378
99998.318
99999.511
99999.963
100000.01
100000
100000
100000
100000
100000
100000
100000
100000
100000
100000
100000
100000
100000
100000
100000
100000
100000
100000
100000
100000
100000
100000
100000
100000
100000
100000
100000
100000
100000
100000
100000
100000
100000
100000
100000
100000
100000
100000
100000
100000
100000
100000
100000
100000
100000
100000
100000
100000
100000
100000
100000
100000
100000
100000
100000
100000
100000
100000
101767.98
111034.94
100472.18
108555.15
101412.72
106111.97
103433.93
104253.37
103293.94
104421.51
104728.37
104433.73
103358.17
101800.73
100720.85
100183.12
100025.88
99998.135
99998.237
99999.502
99999.964
100000.01
100000
100000
100000
100000
100000
100000
100000
100000
100000
100000
100000
100000
100000
100000
100000
100000
100000
100000
100000
100000
100000
100000
100000
100000
100000
100000
100000
100000
100000
100000
100000
100000
100000
100000
100000
100000
100000
100000
100000
100000
100000
100000
100000
100000
100000
100000
100000
100000
100000
100000
100000
100000
100000
100000
100000
100000
100000
100000
101731.75
112158.61
100317.13
109317.08
101257.53
106608.05
103455.27
104408.27
103479.15
104694.24
104972.77
104643.7
103469.57
101820.84
100714.53
100176.11
100023.58
99997.793
99998.231
99999.526
99999.97
100000.01
100000
100000
100000
100000
100000
100000
100000
100000
100000
100000
100000
100000
100000
100000
100000
100000
100000
100000
100000
100000
100000
100000
100000
100000
100000
100000
100000
100000
100000
100000
100000
100000
100000
100000
100000
100000
100000
100000
100000
100000
100000
100000
100000
100000
100000
100000
100000
100000
100000
100000
100000
100000
100000
100000
100000
100000
100000
100000
101549.53
113225.99
100076.22
109734.6
100970.78
106948.74
103349.01
104425.11
103506.22
104909.67
105151.67
104782.14
103479.63
101762.66
100671.04
100157.73
100019.29
99997.441
99998.306
99999.582
99999.979
100000.01
100000
100000
100000
100000
100000
100000
100000
100000
100000
100000
100000
100000
100000
100000
100000
100000
100000
100000
100000
100000
100000
100000
100000
100000
100000
100000
100000
100000
100000
100000
100000
100000
100000
100000
100000
100000
100000
100000
100000
100000
100000
100000
100000
100000
100000
100000
100000
100000
100000
100000
100000
100000
100000
100000
100000
100000
100000
100000
101160.44
114550
99484.889
109789.32
100629.54
106988.11
103173.78
104399.37
103447.45
105048.93
105282.51
104802.99
103387.9
101642.93
100601.11
100132.49
100014.12
99997.193
99998.449
99999.657
99999.989
100000.01
100000
100000
100000
100000
100000
100000
100000
100000
100000
100000
100000
100000
100000
100000
100000
100000
100000
100000
100000
100000
100000
100000
100000
100000
100000
100000
100000
100000
100000
100000
100000
100000
100000
100000
100000
100000
100000
100000
100000
100000
100000
100000
100000
100000
100000
100000
100000
100000
100000
100000
100000
100000
100000
100000
100000
100000
100000
100000
100855.83
114740.64
98968.752
109465.72
100396.34
106494.29
103099.13
104261.48
103403.14
105130.86
105350.87
104739.36
103232.42
101498.99
100525.46
100107.82
100009.54
99997.118
99998.622
99999.73
99999.997
100000.01
100000
100000
100000
100000
100000
100000
100000
100000
100000
100000
100000
100000
100000
100000
100000
100000
100000
100000
100000
100000
100000
100000
100000
100000
100000
100000
100000
100000
100000
100000
100000
100000
100000
100000
100000
100000
100000
100000
100000
100000
100000
100000
100000
100000
100000
100000
100000
100000
100000
100000
100000
100000
100000
100000
100000
100000
100000
100000
100918.39
111720.65
99165.448
108587.64
100488.42
105848.24
103043.57
104047.08
103431.33
105161.73
105407.08
104631.92
103086
101381.78
100468.84
100090.81
100006.65
99997.162
99998.765
99999.78
100000
100000.01
100000
100000
100000
100000
100000
100000
100000
100000
100000
100000
100000
100000
100000
100000
100000
100000
100000
100000
100000
100000
100000
100000
100000
100000
100000
100000
100000
100000
100000
100000
100000
100000
100000
100000
100000
100000
100000
100000
100000
100000
100000
100000
100000
100000
100000
100000
100000
100000
100000
100000
100000
100000
100000
100000
100000
100000
100000
100000
101257.85
108479.29
100062.64
107576.5
101019.29
105175.64
103077.68
103874.42
103484.9
105138.66
105474.28
104553.09
103029.42
101340.6
100452.17
100086.48
100006
99997.194
99998.805
99999.793
100000
100000.01
100000
100000
100000
100000
100000
100000
100000
100000
100000
100000
100000
100000
100000
100000
100000
100000
100000
100000
100000
100000
100000
100000
100000
100000
100000
100000
100000
100000
100000
100000
100000
100000
100000
100000
100000
100000
100000
100000
100000
100000
100000
100000
100000
100000
100000
100000
100000
100000
100000
100000
100000
100000
100000
100000
100000
100000
100000
100000
101426.34
107451.85
100507.24
107113.75
101354.91
104761.15
103107.81
103814.97
103474.24
105056.43
105511.37
104600.76
103142.01
101435.82
100503.76
100104.57
100009.61
99997.349
99998.669
99999.731
99999.994
100000.01
100000
100000
100000
100000
100000
100000
100000
100000
100000
100000
100000
100000
100000
100000
100000
100000
100000
100000
100000
100000
100000
100000
100000
100000
100000
100000
100000
100000
100000
100000
100000
100000
100000
100000
100000
100000
100000
100000
100000
100000
100000
100000
100000
100000
100000
100000
100000
100000
100000
100000
100000
100000
100000
100000
100000
100000
100000
100000
99043.33
98599.268
99568.594
98476.682
99007.857
98924.261
99209.766
98836.22
98664.926
98691.925
99014.255
99487.341
99800.751
99953.729
99993.681
100000.85
100000.5
100000.14
100000
99999.998
99999.999
100000
100000
100000
100000
100000
100000
100000
100000
100000
100000
100000
100000
100000
100000
100000
100000
100000
100000
100000
100000
100000
100000
100000
100000
100000
100000
100000
100000
100000
100000
100000
100000
100000
100000
100000
100000
100000
100000
100000
100000
100000
100000
100000
100000
100000
100000
100000
100000
100000
100000
100000
100000
100000
100000
100000
100000
100000
100000
100000
99004.824
98608.956
99519.958
98446.268
98980.389
98909.541
99114.081
98710.367
98588.367
98638.972
98962.285
99447.884
99770.821
99942.259
99991.102
100000.75
100000.58
100000.19
100000.01
99999.998
99999.999
100000
100000
100000
100000
100000
100000
100000
100000
100000
100000
100000
100000
100000
100000
100000
100000
100000
100000
100000
100000
100000
100000
100000
100000
100000
100000
100000
100000
100000
100000
100000
100000
100000
100000
100000
100000
100000
100000
100000
100000
100000
100000
100000
100000
100000
100000
100000
100000
100000
100000
100000
100000
100000
100000
100000
100000
100000
100000
100000
98914.781
98494.891
99412.373
98325.545
98867.372
98796.694
99040.065
98642.761
98561.209
98636.905
98973.556
99456.063
99773.573
99942.313
99990.919
100000.68
100000.57
100000.19
100000.01
99999.998
99999.999
100000
100000
100000
100000
100000
100000
100000
100000
100000
100000
100000
100000
100000
100000
100000
100000
100000
100000
100000
100000
100000
100000
100000
100000
100000
100000
100000
100000
100000
100000
100000
100000
100000
100000
100000
100000
100000
100000
100000
100000
100000
100000
100000
100000
100000
100000
100000
100000
100000
100000
100000
100000
100000
100000
100000
100000
100000
100000
100000
98921.946
98531.353
99416.002
98370.23
98887.692
98820.548
99061.673
98682.517
98606.386
98670.286
98998.577
99467.354
99777.728
99943.1
99990.984
100000.64
100000.56
100000.19
100000.01
99999.998
99999.999
100000
100000
100000
100000
100000
100000
100000
100000
100000
100000
100000
100000
100000
100000
100000
100000
100000
100000
100000
100000
100000
100000
100000
100000
100000
100000
100000
100000
100000
100000
100000
100000
100000
100000
100000
100000
100000
100000
100000
100000
100000
100000
100000
100000
100000
100000
100000
100000
100000
100000
100000
100000
100000
100000
100000
100000
100000
100000
100000
98946.272
98569.861
99426.795
98412.669
98916.85
98850.242
99086.779
98721.943
98647.593
98705.483
99022.914
99478.489
99781.633
99943.813
99991.022
100000.61
100000.55
100000.18
100000.01
99999.998
99999.999
100000
100000
100000
100000
100000
100000
100000
100000
100000
100000
100000
100000
100000
100000
100000
100000
100000
100000
100000
100000
100000
100000
100000
100000
100000
100000
100000
100000
100000
100000
100000
100000
100000
100000
100000
100000
100000
100000
100000
100000
100000
100000
100000
100000
100000
100000
100000
100000
100000
100000
100000
100000
100000
100000
100000
100000
100000
100000
100000
98973.868
98611.448
99441.503
98457.376
98947.73
98880.706
99112.09
98759.725
98686.793
98739.006
99046.106
99489.135
99785.352
99944.487
99991.054
100000.57
100000.53
100000.18
100000.01
99999.998
99999.999
100000
100000
100000
100000
100000
100000
100000
100000
100000
100000
100000
100000
100000
100000
100000
100000
100000
100000
100000
100000
100000
100000
100000
100000
100000
100000
100000
100000
100000
100000
100000
100000
100000
100000
100000
100000
100000
100000
100000
100000
100000
100000
100000
100000
100000
100000
100000
100000
100000
100000
100000
100000
100000
100000
100000
100000
100000
100000
100000
99000.279
98650.837
99455.26
98500.301
98977.49
98909.782
99136.055
98796.098
98724.689
98771.575
99068.801
99499.631
99789.053
99945.171
99991.092
100000.54
100000.52
100000.18
100000.01
99999.998
99999.999
100000
100000
100000
100000
100000
100000
100000
100000
100000
100000
100000
100000
100000
100000
100000
100000
100000
100000
100000
100000
100000
100000
100000
100000
100000
100000
100000
100000
100000
100000
100000
100000
100000
100000
100000
100000
100000
100000
100000
100000
100000
100000
100000
100000
100000
100000
100000
100000
100000
100000
100000
100000
100000
100000
100000
100000
100000
100000
100000
99026.388
98689.231
99468.787
98542.164
99006.637
98938.291
99159.447
98831.606
98761.714
98803.595
99091.233
99510.1
99792.789
99945.879
99991.137
100000.51
100000.51
100000.18
100000.01
99999.998
99999.999
100000
100000
100000
100000
100000
100000
100000
100000
100000
100000
100000
100000
100000
100000
100000
100000
100000
100000
100000
100000
100000
100000
100000
100000
100000
100000
100000
100000
100000
100000
100000
100000
100000
100000
100000
100000
100000
100000
100000
100000
100000
100000
100000
100000
100000
100000
100000
100000
100000
100000
100000
100000
100000
100000
100000
100000
100000
100000
100000
99052.396
98727.067
99482.21
98583.495
99035.487
98966.532
99182.548
98866.548
98798.213
98835.325
99113.623
99520.655
99796.607
99946.624
99991.191
100000.48
100000.5
100000.18
100000.01
99999.998
99999.999
100000
100000
100000
100000
100000
100000
100000
100000
100000
100000
100000
100000
100000
100000
100000
100000
100000
100000
100000
100000
100000
100000
100000
100000
100000
100000
100000
100000
100000
100000
100000
100000
100000
100000
100000
100000
100000
100000
100000
100000
100000
100000
100000
100000
100000
100000
100000
100000
100000
100000
100000
100000
100000
100000
100000
100000
100000
100000
100000
99078.367
98764.447
99495.628
98624.43
99064.14
98994.655
99205.431
98901.124
98834.318
98866.964
99136.085
99531.36
99800.534
99947.413
99991.257
100000.45
100000.49
100000.17
100000.01
99999.998
99999.999
100000
100000
100000
100000
100000
100000
100000
100000
100000
100000
100000
100000
100000
100000
100000
100000
100000
100000
100000
100000
100000
100000
100000
100000
100000
100000
100000
100000
100000
100000
100000
100000
100000
100000
100000
100000
100000
100000
100000
100000
100000
100000
100000
100000
100000
100000
100000
100000
100000
100000
100000
100000
100000
100000
100000
100000
100000
100000
100000
99104.607
98801.812
99509.103
98665.423
99092.854
99022.936
99228.336
98935.597
98870.38
98898.763
99158.851
99542.342
99804.627
99948.262
99991.337
100000.42
100000.48
100000.17
100000.01
99999.999
99999.999
100000
100000
100000
100000
100000
100000
100000
100000
100000
100000
100000
100000
100000
100000
100000
100000
100000
100000
100000
100000
100000
100000
100000
100000
100000
100000
100000
100000
100000
100000
100000
100000
100000
100000
100000
100000
100000
100000
100000
100000
100000
100000
100000
100000
100000
100000
100000
100000
100000
100000
100000
100000
100000
100000
100000
100000
100000
100000
100000
99131.201
98839.331
99522.758
98706.678
99121.773
99051.535
99251.381
98970.202
98906.566
98930.943
99182.065
99553.681
99808.921
99949.182
99991.432
100000.39
100000.47
100000.17
100000.01
99999.999
99999.999
100000
100000
100000
100000
100000
100000
100000
100000
100000
100000
100000
100000
100000
100000
100000
100000
100000
100000
100000
100000
100000
100000
100000
100000
100000
100000
100000
100000
100000
100000
100000
100000
100000
100000
100000
100000
100000
100000
100000
100000
100000
100000
100000
100000
100000
100000
100000
100000
100000
100000
100000
100000
100000
100000
100000
100000
100000
100000
100000
99158.364
98877.337
99536.675
98748.55
99151.107
99080.706
99274.78
99005.188
98943.186
98963.772
99205.948
99565.502
99813.473
99950.187
99991.547
100000.37
100000.46
100000.16
100000.01
99999.999
99999.999
100000
100000
100000
100000
100000
100000
100000
100000
100000
100000
100000
100000
100000
100000
100000
100000
100000
100000
100000
100000
100000
100000
100000
100000
100000
100000
100000
100000
100000
100000
100000
100000
100000
100000
100000
100000
100000
100000
100000
100000
100000
100000
100000
100000
100000
100000
100000
100000
100000
100000
100000
100000
100000
100000
100000
100000
100000
100000
100000
99186.321
98916.142
99551
98791.361
99181.044
99110.659
99298.714
99040.808
98980.464
98997.502
99230.677
99577.907
99818.326
99951.291
99991.684
100000.34
100000.44
100000.16
100000.01
99999.999
99999.999
100000
100000
100000
100000
100000
100000
100000
100000
100000
100000
100000
100000
100000
100000
100000
100000
100000
100000
100000
100000
100000
100000
100000
100000
100000
100000
100000
100000
100000
100000
100000
100000
100000
100000
100000
100000
100000
100000
100000
100000
100000
100000
100000
100000
100000
100000
100000
100000
100000
100000
100000
100000
100000
100000
100000
100000
100000
100000
100000
99215.213
98955.968
99565.834
98835.402
99211.772
99141.609
99323.358
99077.325
99018.636
99032.386
99256.439
99590.999
99823.53
99952.508
99991.844
100000.32
100000.43
100000.16
100000.01
99999.999
99999.999
100000
100000
100000
100000
100000
100000
100000
100000
100000
100000
100000
100000
100000
100000
100000
100000
100000
100000
100000
100000
100000
100000
100000
100000
100000
100000
100000
100000
100000
100000
100000
100000
100000
100000
100000
100000
100000
100000
100000
100000
100000
100000
100000
100000
100000
100000
100000
100000
100000
100000
100000
100000
100000
100000
100000
100000
100000
100000
100000
99245.332
98997.191
99581.317
98881.101
99243.536
99173.801
99348.96
99115.05
99058.045
99068.713
99283.497
99604.926
99829.15
99953.856
99992.033
100000.29
100000.41
100000.15
100000.01
99999.999
99999.999
100000
100000
100000
100000
100000
100000
100000
100000
100000
100000
100000
100000
100000
100000
100000
100000
100000
100000
100000
100000
100000
100000
100000
100000
100000
100000
100000
100000
100000
100000
100000
100000
100000
100000
100000
100000
100000
100000
100000
100000
100000
100000
100000
100000
100000
100000
100000
100000
100000
100000
100000
100000
100000
100000
100000
100000
100000
100000
100000
99276.896
99040.118
99597.652
98928.838
99276.504
99207.426
99375.794
99154.269
99098.944
99106.773
99312.052
99619.806
99835.24
99955.35
99992.252
100000.27
100000.4
100000.15
100000.01
99999.999
99999.999
100000
100000
100000
100000
100000
100000
100000
100000
100000
100000
100000
100000
100000
100000
100000
100000
100000
100000
100000
100000
100000
100000
100000
100000
100000
100000
100000
100000
100000
100000
100000
100000
100000
100000
100000
100000
100000
100000
100000
100000
100000
100000
100000
100000
100000
100000
100000
100000
100000
100000