/*--------------------------------*- C++ -*----------------------------------*\
| =========                 |                                                 |
| \\      /  F ield         | OpenFOAM: The Open Source CFD Toolbox           |
|  \\    /   O peration     | Version:  2406                                  |
|   \\  /    A nd           | Website:  www.openfoam.com                      |
|    \\/     M anipulation  |                                                 |
\*---------------------------------------------------------------------------*/
FoamFile
{
    version     2.0;
    format      ascii;
    arch        "LSB;label=32;scalar=64";
    class       volScalarField;
    location    "9e-05";
    object      rho;
}
// * * * * * * * * * * * * * * * * * * * * * * * * * * * * * * * * * * * * * //

dimensions      [1 -3 0 0 0 0 0];

internalField   nonuniform List<scalar> 
16000
(
1.1653137
1.1683689
1.1664985
1.1666001
1.1668208
1.1666171
1.1667061
1.1666469
1.166756
1.1667272
1.1666874
1.1665559
1.1664674
1.1664117
1.1663989
1.1663976
1.1663983
1.1663986
1.1663986
1.1663986
1.1663986
1.1663986
1.1663986
1.1663986
1.1663986
1.1663986
1.1663986
1.1663986
1.1663986
1.1663986
1.1663986
1.1663986
1.1663986
1.1663986
1.1663986
1.1663986
1.1663986
1.1663986
1.1663986
1.1663986
1.1663986
1.1663986
1.1663986
1.1663986
1.1663986
1.1663986
1.1663986
1.1663986
1.1663986
1.1663986
1.1663986
1.1663986
1.1663986
1.1663986
1.1663986
1.1663986
1.1663986
1.1663986
1.1663986
1.1663986
1.1663986
1.1663986
1.1663986
1.1663986
1.1663986
1.1663986
1.1663986
1.1663986
1.1663986
1.1663986
1.1663986
1.1663986
1.1663986
1.1663986
1.1663986
1.1663986
1.1663986
1.1663986
1.1663986
1.1663986
1.1665962
1.1681874
1.167243
1.1671816
1.1674158
1.1672644
1.1672755
1.1672531
1.1674278
1.1674332
1.1673076
1.1669375
1.1666491
1.16647
1.1664128
1.1663985
1.166398
1.1663984
1.1663986
1.1663986
1.1663986
1.1663986
1.1663986
1.1663986
1.1663986
1.1663986
1.1663986
1.1663986
1.1663986
1.1663986
1.1663986
1.1663986
1.1663986
1.1663986
1.1663986
1.1663986
1.1663986
1.1663986
1.1663986
1.1663986
1.1663986
1.1663986
1.1663986
1.1663986
1.1663986
1.1663986
1.1663986
1.1663986
1.1663986
1.1663986
1.1663986
1.1663986
1.1663986
1.1663986
1.1663986
1.1663986
1.1663986
1.1663986
1.1663986
1.1663986
1.1663986
1.1663986
1.1663986
1.1663986
1.1663986
1.1663986
1.1663986
1.1663986
1.1663986
1.1663986
1.1663986
1.1663986
1.1663986
1.1663986
1.1663986
1.1663986
1.1663986
1.1663986
1.1663986
1.1663986
1.1678144
1.1680803
1.1682499
1.1676732
1.1681307
1.1679117
1.1678213
1.1679096
1.1681052
1.1681869
1.1679884
1.1673939
1.1668945
1.1665589
1.1664353
1.1664009
1.1663977
1.1663981
1.1663985
1.1663986
1.1663986
1.1663986
1.1663986
1.1663986
1.1663986
1.1663986
1.1663986
1.1663986
1.1663986
1.1663986
1.1663986
1.1663986
1.1663986
1.1663986
1.1663986
1.1663986
1.1663986
1.1663986
1.1663986
1.1663986
1.1663986
1.1663986
1.1663986
1.1663986
1.1663986
1.1663986
1.1663986
1.1663986
1.1663986
1.1663986
1.1663986
1.1663986
1.1663986
1.1663986
1.1663986
1.1663986
1.1663986
1.1663986
1.1663986
1.1663986
1.1663986
1.1663986
1.1663986
1.1663986
1.1663986
1.1663986
1.1663986
1.1663986
1.1663986
1.1663986
1.1663986
1.1663986
1.1663986
1.1663986
1.1663986
1.1663986
1.1663986
1.1663986
1.1663986
1.1663986
1.1689671
1.1678897
1.1694692
1.1681705
1.1689185
1.168547
1.1683934
1.1685656
1.1687649
1.1689747
1.1687386
1.1679329
1.1672004
1.1666743
1.1664668
1.1664046
1.1663974
1.1663977
1.1663985
1.1663986
1.1663986
1.1663986
1.1663986
1.1663986
1.1663986
1.1663986
1.1663986
1.1663986
1.1663986
1.1663986
1.1663986
1.1663986
1.1663986
1.1663986
1.1663986
1.1663986
1.1663986
1.1663986
1.1663986
1.1663986
1.1663986
1.1663986
1.1663986
1.1663986
1.1663986
1.1663986
1.1663986
1.1663986
1.1663986
1.1663986
1.1663986
1.1663986
1.1663986
1.1663986
1.1663986
1.1663986
1.1663986
1.1663986
1.1663986
1.1663986
1.1663986
1.1663986
1.1663986
1.1663986
1.1663986
1.1663986
1.1663986
1.1663986
1.1663986
1.1663986
1.1663986
1.1663986
1.1663986
1.1663986
1.1663986
1.1663986
1.1663986
1.1663986
1.1663986
1.1663986
1.170187
1.1675824
1.1708262
1.1686075
1.1697528
1.1691626
1.1690373
1.1692017
1.1694229
1.1697871
1.1695412
1.1685439
1.1675695
1.1668219
1.1665101
1.1664107
1.1663972
1.1663973
1.1663983
1.1663986
1.1663986
1.1663986
1.1663986
1.1663986
1.1663986
1.1663986
1.1663986
1.1663986
1.1663986
1.1663986
1.1663986
1.1663986
1.1663986
1.1663986
1.1663986
1.1663986
1.1663986
1.1663986
1.1663986
1.1663986
1.1663986
1.1663986
1.1663986
1.1663986
1.1663986
1.1663986
1.1663986
1.1663986
1.1663986
1.1663986
1.1663986
1.1663986
1.1663986
1.1663986
1.1663986
1.1663986
1.1663986
1.1663986
1.1663986
1.1663986
1.1663986
1.1663986
1.1663986
1.1663986
1.1663986
1.1663986
1.1663986
1.1663986
1.1663986
1.1663986
1.1663986
1.1663986
1.1663986
1.1663986
1.1663986
1.1663986
1.1663986
1.1663986
1.1663986
1.1663986
1.171564
1.167065
1.1723561
1.1690142
1.1705294
1.1698772
1.1697593
1.1698289
1.1701161
1.1705804
1.1703971
1.1692262
1.1680044
1.1670051
1.1665672
1.1664198
1.1663973
1.1663969
1.1663982
1.1663986
1.1663986
1.1663986
1.1663986
1.1663986
1.1663986
1.1663986
1.1663986
1.1663986
1.1663986
1.1663986
1.1663986
1.1663986
1.1663986
1.1663986
1.1663986
1.1663986
1.1663986
1.1663986
1.1663986
1.1663986
1.1663986
1.1663986
1.1663986
1.1663986
1.1663986
1.1663986
1.1663986
1.1663986
1.1663986
1.1663986
1.1663986
1.1663986
1.1663986
1.1663986
1.1663986
1.1663986
1.1663986
1.1663986
1.1663986
1.1663986
1.1663986
1.1663986
1.1663986
1.1663986
1.1663986
1.1663986
1.1663986
1.1663986
1.1663986
1.1663986
1.1663986
1.1663986
1.1663986
1.1663986
1.1663986
1.1663986
1.1663986
1.1663986
1.1663986
1.1663986
1.1731184
1.1662882
1.1741225
1.1693789
1.171285
1.1706954
1.1705404
1.1704662
1.1708091
1.1714043
1.1713092
1.1699794
1.1685055
1.1672265
1.1666398
1.1664328
1.1663978
1.1663963
1.1663979
1.1663986
1.1663986
1.1663986
1.1663986
1.1663986
1.1663986
1.1663986
1.1663986
1.1663986
1.1663986
1.1663986
1.1663986
1.1663986
1.1663986
1.1663986
1.1663986
1.1663986
1.1663986
1.1663986
1.1663986
1.1663986
1.1663986
1.1663986
1.1663986
1.1663986
1.1663986
1.1663986
1.1663986
1.1663986
1.1663986
1.1663986
1.1663986
1.1663986
1.1663986
1.1663986
1.1663986
1.1663986
1.1663986
1.1663986
1.1663986
1.1663986
1.1663986
1.1663986
1.1663986
1.1663986
1.1663986
1.1663986
1.1663986
1.1663986
1.1663986
1.1663986
1.1663986
1.1663986
1.1663986
1.1663986
1.1663986
1.1663986
1.1663986
1.1663986
1.1663986
1.1663986
1.1748644
1.1652153
1.1761468
1.169724
1.1720471
1.1715867
1.1713681
1.1711337
1.171453
1.1723223
1.172266
1.1708061
1.1690736
1.1674883
1.1667295
1.1664502
1.1663988
1.1663957
1.1663977
1.1663985
1.1663987
1.1663986
1.1663986
1.1663986
1.1663986
1.1663986
1.1663986
1.1663986
1.1663986
1.1663986
1.1663986
1.1663986
1.1663986
1.1663986
1.1663986
1.1663986
1.1663986
1.1663986
1.1663986
1.1663986
1.1663986
1.1663986
1.1663986
1.1663986
1.1663986
1.1663986
1.1663986
1.1663986
1.1663986
1.1663986
1.1663986
1.1663986
1.1663986
1.1663986
1.1663986
1.1663986
1.1663986
1.1663986
1.1663986
1.1663986
1.1663986
1.1663986
1.1663986
1.1663986
1.1663986
1.1663986
1.1663986
1.1663986
1.1663986
1.1663986
1.1663986
1.1663986
1.1663986
1.1663986
1.1663986
1.1663986
1.1663986
1.1663986
1.1663986
1.1663986
1.176806
1.1638444
1.1784574
1.1700656
1.17275
1.1725875
1.172234
1.1718516
1.1720894
1.1733499
1.1732327
1.1717015
1.1697098
1.1677926
1.1668377
1.1664726
1.1664006
1.1663951
1.1663973
1.1663985
1.1663987
1.1663986
1.1663986
1.1663986
1.1663986
1.1663986
1.1663986
1.1663986
1.1663986
1.1663986
1.1663986
1.1663986
1.1663986
1.1663986
1.1663986
1.1663986
1.1663986
1.1663986
1.1663986
1.1663986
1.1663986
1.1663986
1.1663986
1.1663986
1.1663986
1.1663986
1.1663986
1.1663986
1.1663986
1.1663986
1.1663986
1.1663986
1.1663986
1.1663986
1.1663986
1.1663986
1.1663986
1.1663986
1.1663986
1.1663986
1.1663986
1.1663986
1.1663986
1.1663986
1.1663986
1.1663986
1.1663986
1.1663986
1.1663986
1.1663986
1.1663986
1.1663986
1.1663986
1.1663986
1.1663986
1.1663986
1.1663986
1.1663986
1.1663986
1.1663986
1.1789798
1.1620922
1.1811322
1.1703888
1.1733752
1.1737147
1.1731425
1.1726367
1.1727325
1.1744105
1.1742804
1.1726722
1.1704154
1.1681416
1.1669662
1.1665009
1.1664034
1.1663944
1.166397
1.1663984
1.1663986
1.1663986
1.1663986
1.1663986
1.1663986
1.1663986
1.1663986
1.1663986
1.1663986
1.1663986
1.1663986
1.1663986
1.1663986
1.1663986
1.1663986
1.1663986
1.1663986
1.1663986
1.1663986
1.1663986
1.1663986
1.1663986
1.1663986
1.1663986
1.1663986
1.1663986
1.1663986
1.1663986
1.1663986
1.1663986
1.1663986
1.1663986
1.1663986
1.1663986
1.1663986
1.1663986
1.1663986
1.1663986
1.1663986
1.1663986
1.1663986
1.1663986
1.1663986
1.1663986
1.1663986
1.1663986
1.1663986
1.1663986
1.1663986
1.1663986
1.1663986
1.1663986
1.1663986
1.1663986
1.1663986
1.1663986
1.1663986
1.1663986
1.1663986
1.1663986
1.1815016
1.1597388
1.1843176
1.1706534
1.173975
1.1749579
1.1740778
1.1735049
1.1734193
1.1754729
1.175435
1.1737037
1.1711953
1.168539
1.167117
1.1665357
1.1664072
1.1663937
1.1663966
1.1663983
1.1663986
1.1663987
1.1663986
1.1663986
1.1663986
1.1663986
1.1663986
1.1663986
1.1663986
1.1663986
1.1663986
1.1663986
1.1663986
1.1663986
1.1663986
1.1663986
1.1663986
1.1663986
1.1663986
1.1663986
1.1663986
1.1663986
1.1663986
1.1663986
1.1663986
1.1663986
1.1663986
1.1663986
1.1663986
1.1663986
1.1663986
1.1663986
1.1663986
1.1663986
1.1663986
1.1663986
1.1663986
1.1663986
1.1663986
1.1663986
1.1663986
1.1663986
1.1663986
1.1663986
1.1663986
1.1663986
1.1663986
1.1663986
1.1663986
1.1663986
1.1663986
1.1663986
1.1663986
1.1663986
1.1663986
1.1663986
1.1663986
1.1663986
1.1663986
1.1663986
1.1844764
1.1566374
1.1881049
1.1708432
1.1745789
1.1763697
1.1749929
1.1744632
1.1741523
1.1765325
1.1767137
1.1748109
1.1720547
1.1689898
1.1672926
1.1665779
1.1664124
1.166393
1.1663961
1.1663982
1.1663986
1.1663987
1.1663986
1.1663986
1.1663986
1.1663986
1.1663986
1.1663986
1.1663986
1.1663986
1.1663986
1.1663986
1.1663986
1.1663986
1.1663986
1.1663986
1.1663986
1.1663986
1.1663986
1.1663986
1.1663986
1.1663986
1.1663986
1.1663986
1.1663986
1.1663986
1.1663986
1.1663986
1.1663986
1.1663986
1.1663986
1.1663986
1.1663986
1.1663986
1.1663986
1.1663986
1.1663986
1.1663986
1.1663986
1.1663986
1.1663986
1.1663986
1.1663986
1.1663986
1.1663986
1.1663986
1.1663986
1.1663986
1.1663986
1.1663986
1.1663986
1.1663986
1.1663986
1.1663986
1.1663986
1.1663986
1.1663986
1.1663986
1.1663986
1.1663986
1.1878595
1.152924
1.1924136
1.1709812
1.175251
1.1779242
1.1759216
1.1755022
1.1749276
1.1776408
1.1780663
1.1760164
1.173004
1.1694998
1.1674961
1.1666287
1.1664191
1.1663923
1.1663955
1.166398
1.1663986
1.1663987
1.1663986
1.1663986
1.1663986
1.1663986
1.1663986
1.1663986
1.1663986
1.1663986
1.1663986
1.1663986
1.1663986
1.1663986
1.1663986
1.1663986
1.1663986
1.1663986
1.1663986
1.1663986
1.1663986
1.1663986
1.1663986
1.1663986
1.1663986
1.1663986
1.1663986
1.1663986
1.1663986
1.1663986
1.1663986
1.1663986
1.1663986
1.1663986
1.1663986
1.1663986
1.1663986
1.1663986
1.1663986
1.1663986
1.1663986
1.1663986
1.1663986
1.1663986
1.1663986
1.1663986
1.1663986
1.1663986
1.1663986
1.1663986
1.1663986
1.1663986
1.1663986
1.1663986
1.1663986
1.1663986
1.1663986
1.1663986
1.1663986
1.1663986
1.1915206
1.1486757
1.1972374
1.1710624
1.1760052
1.1796103
1.1769095
1.1766306
1.1757515
1.1788087
1.179491
1.1773282
1.1740542
1.1700769
1.1677314
1.1666895
1.1664277
1.1663916
1.1663949
1.1663978
1.1663986
1.1663987
1.1663986
1.1663986
1.1663986
1.1663986
1.1663986
1.1663986
1.1663986
1.1663986
1.1663986
1.1663986
1.1663986
1.1663986
1.1663986
1.1663986
1.1663986
1.1663986
1.1663986
1.1663986
1.1663986
1.1663986
1.1663986
1.1663986
1.1663986
1.1663986
1.1663986
1.1663986
1.1663986
1.1663986
1.1663986
1.1663986
1.1663986
1.1663986
1.1663986
1.1663986
1.1663986
1.1663986
1.1663986
1.1663986
1.1663986
1.1663986
1.1663986
1.1663986
1.1663986
1.1663986
1.1663986
1.1663986
1.1663986
1.1663986
1.1663986
1.1663986
1.1663986
1.1663986
1.1663986
1.1663986
1.1663986
1.1663986
1.1663986
1.1663986
1.1955786
1.143655
1.2027841
1.1710705
1.1768451
1.1814762
1.1779612
1.1778869
1.1766422
1.1800486
1.1809893
1.178755
1.1752158
1.1707296
1.1680032
1.1667617
1.1664385
1.166391
1.1663943
1.1663976
1.1663986
1.1663987
1.1663986
1.1663986
1.1663986
1.1663986
1.1663986
1.1663986
1.1663986
1.1663986
1.1663986
1.1663986
1.1663986
1.1663986
1.1663986
1.1663986
1.1663986
1.1663986
1.1663986
1.1663986
1.1663986
1.1663986
1.1663986
1.1663986
1.1663986
1.1663986
1.1663986
1.1663986
1.1663986
1.1663986
1.1663986
1.1663986
1.1663986
1.1663986
1.1663986
1.1663986
1.1663986
1.1663986
1.1663986
1.1663986
1.1663986
1.1663986
1.1663986
1.1663986
1.1663986
1.1663986
1.1663986
1.1663986
1.1663986
1.1663986
1.1663986
1.1663986
1.1663986
1.1663986
1.1663986
1.1663986
1.1663986
1.1663986
1.1663986
1.1663986
1.2001866
1.1376504
1.209192
1.1710013
1.1777883
1.1835638
1.1790865
1.179321
1.1776332
1.1813884
1.1825677
1.1803215
1.1765009
1.1714668
1.1683159
1.166847
1.1664519
1.1663905
1.1663935
1.1663974
1.1663986
1.1663987
1.1663986
1.1663986
1.1663986
1.1663986
1.1663986
1.1663986
1.1663986
1.1663986
1.1663986
1.1663986
1.1663986
1.1663986
1.1663986
1.1663986
1.1663986
1.1663986
1.1663986
1.1663986
1.1663986
1.1663986
1.1663986
1.1663986
1.1663986
1.1663986
1.1663986
1.1663986
1.1663986
1.1663986
1.1663986
1.1663986
1.1663986
1.1663986
1.1663986
1.1663986
1.1663986
1.1663986
1.1663986
1.1663986
1.1663986
1.1663986
1.1663986
1.1663986
1.1663986
1.1663986
1.1663986
1.1663986
1.1663986
1.1663986
1.1663986
1.1663986
1.1663986
1.1663986
1.1663986
1.1663986
1.1663986
1.1663986
1.1663986
1.1663986
1.2052381
1.13075
1.2164915
1.1708515
1.1790028
1.185929
1.1803249
1.1809739
1.1787579
1.1828771
1.1842806
1.1820652
1.1779306
1.1722988
1.1686736
1.1669467
1.1664682
1.1663901
1.1663927
1.1663971
1.1663986
1.1663987
1.1663987
1.1663986
1.1663986
1.1663986
1.1663986
1.1663986
1.1663986
1.1663986
1.1663986
1.1663986
1.1663986
1.1663986
1.1663986
1.1663986
1.1663986
1.1663986
1.1663986
1.1663986
1.1663986
1.1663986
1.1663986
1.1663986
1.1663986
1.1663986
1.1663986
1.1663986
1.1663986
1.1663986
1.1663986
1.1663986
1.1663986
1.1663986
1.1663986
1.1663986
1.1663986
1.1663986
1.1663986
1.1663986
1.1663986
1.1663986
1.1663986
1.1663986
1.1663986
1.1663986
1.1663986
1.1663986
1.1663986
1.1663986
1.1663986
1.1663986
1.1663986
1.1663986
1.1663986
1.1663986
1.1663986
1.1663986
1.1663986
1.1663986
1.2110074
1.1228932
1.2248085
1.1706936
1.1802793
1.18856
1.1815997
1.1828394
1.1800026
1.1845397
1.1861987
1.1840445
1.179538
1.1732374
1.1690787
1.1670608
1.1664872
1.1663899
1.1663917
1.1663968
1.1663985
1.1663987
1.1663987
1.1663986
1.1663986
1.1663986
1.1663986
1.1663986
1.1663986
1.1663986
1.1663986
1.1663986
1.1663986
1.1663986
1.1663986
1.1663986
1.1663986
1.1663986
1.1663986
1.1663986
1.1663986
1.1663986
1.1663986
1.1663986
1.1663986
1.1663986
1.1663986
1.1663986
1.1663986
1.1663986
1.1663986
1.1663986
1.1663986
1.1663986
1.1663986
1.1663986
1.1663986
1.1663986
1.1663986
1.1663986
1.1663986
1.1663986
1.1663986
1.1663986
1.1663986
1.1663986
1.1663986
1.1663986
1.1663986
1.1663986
1.1663986
1.1663986
1.1663986
1.1663986
1.1663986
1.1663986
1.1663986
1.1663986
1.1663986
1.1663986
1.2178204
1.1133855
1.234138
1.1704397
1.181707
1.1917407
1.1829698
1.1848572
1.1813164
1.1863272
1.188316
1.1862712
1.1813292
1.1742823
1.1695278
1.1671875
1.1665084
1.1663896
1.1663908
1.1663964
1.1663985
1.1663987
1.1663987
1.1663986
1.1663986
1.1663986
1.1663986
1.1663986
1.1663986
1.1663986
1.1663986
1.1663986
1.1663986
1.1663986
1.1663986
1.1663986
1.1663986
1.1663986
1.1663986
1.1663986
1.1663986
1.1663986
1.1663986
1.1663986
1.1663986
1.1663986
1.1663986
1.1663986
1.1663986
1.1663986
1.1663986
1.1663986
1.1663986
1.1663986
1.1663986
1.1663986
1.1663986
1.1663986
1.1663986
1.1663986
1.1663986
1.1663986
1.1663986
1.1663986
1.1663986
1.1663986
1.1663986
1.1663986
1.1663986
1.1663986
1.1663986
1.1663986
1.1663986
1.1663986
1.1663986
1.1663986
1.1663986
1.1663986
1.1663986
1.1663986
1.2260204
1.1004862
1.2463771
1.169922
1.1830485
1.1950466
1.1841794
1.1868899
1.1827025
1.1882706
1.1905546
1.188625
1.1832218
1.1753869
1.1700003
1.1673202
1.1665304
1.1663894
1.1663897
1.166396
1.1663984
1.1663987
1.1663987
1.1663986
1.1663986
1.1663986
1.1663986
1.1663986
1.1663986
1.1663986
1.1663986
1.1663986
1.1663986
1.1663986
1.1663986
1.1663986
1.1663986
1.1663986
1.1663986
1.1663986
1.1663986
1.1663986
1.1663986
1.1663986
1.1663986
1.1663986
1.1663986
1.1663986
1.1663986
1.1663986
1.1663986
1.1663986
1.1663986
1.1663986
1.1663986
1.1663986
1.1663986
1.1663986
1.1663986
1.1663986
1.1663986
1.1663986
1.1663986
1.1663986
1.1663986
1.1663986
1.1663986
1.1663986
1.1663986
1.1663986
1.1663986
1.1663986
1.1663986
1.1663986
1.1663986
1.1663986
1.1663986
1.1663986
1.1663986
1.1663986
1.233558
1.0841891
1.2606492
1.1678115
1.1840298
1.1986769
1.1848427
1.1897692
1.1843431
1.1905046
1.192808
1.1908598
1.1850538
1.1764436
1.17045
1.1674436
1.1665503
1.166389
1.1663887
1.1663957
1.1663984
1.1663987
1.1663987
1.1663986
1.1663986
1.1663986
1.1663986
1.1663986
1.1663986
1.1663986
1.1663986
1.1663986
1.1663986
1.1663986
1.1663986
1.1663986
1.1663986
1.1663986
1.1663986
1.1663986
1.1663986
1.1663986
1.1663986
1.1663986
1.1663986
1.1663986
1.1663986
1.1663986
1.1663986
1.1663986
1.1663986
1.1663986
1.1663986
1.1663986
1.1663986
1.1663986
1.1663986
1.1663986
1.1663986
1.1663986
1.1663986
1.1663986
1.1663986
1.1663986
1.1663986
1.1663986
1.1663986
1.1663986
1.1663986
1.1663986
1.1663986
1.1663986
1.1663986
1.1663986
1.1663986
1.1663986
1.1663986
1.1663986
1.1663986
1.1663986
1.2415497
1.0678465
1.2731941
1.1658522
1.1851525
1.2026884
1.1856139
1.1926663
1.1859519
1.1928101
1.1948667
1.1928156
1.1866518
1.177322
1.1708047
1.1675334
1.166563
1.1663881
1.1663879
1.1663955
1.1663984
1.1663987
1.1663987
1.1663986
1.1663986
1.1663986
1.1663986
1.1663986
1.1663986
1.1663986
1.1663986
1.1663986
1.1663986
1.1663986
1.1663986
1.1663986
1.1663986
1.1663986
1.1663986
1.1663986
1.1663986
1.1663986
1.1663986
1.1663986
1.1663986
1.1663986
1.1663986
1.1663986
1.1663986
1.1663986
1.1663986
1.1663986
1.1663986
1.1663986
1.1663986
1.1663986
1.1663986
1.1663986
1.1663986
1.1663986
1.1663986
1.1663986
1.1663986
1.1663986
1.1663986
1.1663986
1.1663986
1.1663986
1.1663986
1.1663986
1.1663986
1.1663986
1.1663986
1.1663986
1.1663986
1.1663986
1.1663986
1.1663986
1.1663986
1.1663986
1.2484933
1.0544882
1.2848755
1.1645715
1.186414
1.2064431
1.1862503
1.194688
1.1874177
1.1950854
1.1964982
1.1945069
1.1878593
1.1778755
1.1709851
1.1675624
1.166563
1.1663865
1.1663874
1.1663955
1.1663984
1.1663987
1.1663987
1.1663986
1.1663986
1.1663986
1.1663986
1.1663986
1.1663986
1.1663986
1.1663986
1.1663986
1.1663986
1.1663986
1.1663986
1.1663986
1.1663986
1.1663986
1.1663986
1.1663986
1.1663986
1.1663986
1.1663986
1.1663986
1.1663986
1.1663986
1.1663986
1.1663986
1.1663986
1.1663986
1.1663986
1.1663986
1.1663986
1.1663986
1.1663986
1.1663986
1.1663986
1.1663986
1.1663986
1.1663986
1.1663986
1.1663986
1.1663986
1.1663986
1.1663986
1.1663986
1.1663986
1.1663986
1.1663986
1.1663986
1.1663986
1.1663986
1.1663986
1.1663986
1.1663986
1.1663986
1.1663986
1.1663986
1.1663986
1.1663986
1.2502429
1.046731
1.294547
1.161458
1.1873542
1.209159
1.1864369
1.1955823
1.1885662
1.1964926
1.1980132
1.1958589
1.1885159
1.1779684
1.1709308
1.1675138
1.1665478
1.1663843
1.1663874
1.1663956
1.1663985
1.1663987
1.1663987
1.1663986
1.1663986
1.1663986
1.1663986
1.1663986
1.1663986
1.1663986
1.1663986
1.1663986
1.1663986
1.1663986
1.1663986
1.1663986
1.1663986
1.1663986
1.1663986
1.1663986
1.1663986
1.1663986
1.1663986
1.1663986
1.1663986
1.1663986
1.1663986
1.1663986
1.1663986
1.1663986
1.1663986
1.1663986
1.1663986
1.1663986
1.1663986
1.1663986
1.1663986
1.1663986
1.1663986
1.1663986
1.1663986
1.1663986
1.1663986
1.1663986
1.1663986
1.1663986
1.1663986
1.1663986
1.1663986
1.1663986
1.1663986
1.1663986
1.1663986
1.1663986
1.1663986
1.1663986
1.1663986
1.1663986
1.1663986
1.1663986
1.2535646
1.034978
1.3040002
1.1577047
1.1865846
1.2104696
1.1864393
1.195062
1.1889198
1.1972855
1.1992171
1.1967606
1.1885184
1.1775585
1.1706401
1.1673933
1.1665201
1.1663821
1.1663879
1.166396
1.1663985
1.1663987
1.1663987
1.1663986
1.1663986
1.1663986
1.1663986
1.1663986
1.1663986
1.1663986
1.1663986
1.1663986
1.1663986
1.1663986
1.1663986
1.1663986
1.1663986
1.1663986
1.1663986
1.1663986
1.1663986
1.1663986
1.1663986
1.1663986
1.1663986
1.1663986
1.1663986
1.1663986
1.1663986
1.1663986
1.1663986
1.1663986
1.1663986
1.1663986
1.1663986
1.1663986
1.1663986
1.1663986
1.1663986
1.1663986
1.1663986
1.1663986
1.1663986
1.1663986
1.1663986
1.1663986
1.1663986
1.1663986
1.1663986
1.1663986
1.1663986
1.1663986
1.1663986
1.1663986
1.1663986
1.1663986
1.1663986
1.1663986
1.1663986
1.1663986
1.2663125
1.0135935
1.3089079
1.1585842
1.1826092
1.2096676
1.1865274
1.1937629
1.1885583
1.1981756
1.1999456
1.1968417
1.1878668
1.1767603
1.1701845
1.1672306
1.166487
1.1663806
1.1663888
1.1663965
1.1663986
1.1663987
1.1663987
1.1663986
1.1663986
1.1663986
1.1663986
1.1663986
1.1663986
1.1663986
1.1663986
1.1663986
1.1663986
1.1663986
1.1663986
1.1663986
1.1663986
1.1663986
1.1663986
1.1663986
1.1663986
1.1663986
1.1663986
1.1663986
1.1663986
1.1663986
1.1663986
1.1663986
1.1663986
1.1663986
1.1663986
1.1663986
1.1663986
1.1663986
1.1663986
1.1663986
1.1663986
1.1663986
1.1663986
1.1663986
1.1663986
1.1663986
1.1663986
1.1663986
1.1663986
1.1663986
1.1663986
1.1663986
1.1663986
1.1663986
1.1663986
1.1663986
1.1663986
1.1663986
1.1663986
1.1663986
1.1663986
1.1663986
1.1663986
1.1663986
1.2744328
0.99973302
1.3028154
1.1660252
1.177024
1.2057548
1.1867769
1.1925156
1.1879767
1.1987766
1.2002791
1.1963628
1.1868159
1.1758177
1.169697
1.1670728
1.1664579
1.1663802
1.16639
1.1663969
1.1663986
1.1663987
1.1663987
1.1663986
1.1663986
1.1663986
1.1663986
1.1663986
1.1663986
1.1663986
1.1663986
1.1663986
1.1663986
1.1663986
1.1663986
1.1663986
1.1663986
1.1663986
1.1663986
1.1663986
1.1663986
1.1663986
1.1663986
1.1663986
1.1663986
1.1663986
1.1663986
1.1663986
1.1663986
1.1663986
1.1663986
1.1663986
1.1663986
1.1663986
1.1663986
1.1663986
1.1663986
1.1663986
1.1663986
1.1663986
1.1663986
1.1663986
1.1663986
1.1663986
1.1663986
1.1663986
1.1663986
1.1663986
1.1663986
1.1663986
1.1663986
1.1663986
1.1663986
1.1663986
1.1663986
1.1663986
1.1663986
1.1663986
1.1663986
1.1663986
1.2669007
1.0138203
1.2869329
1.1720874
1.17569
1.2005178
1.1858312
1.1916287
1.187991
1.1989202
1.2005577
1.1956103
1.1858377
1.1750545
1.1693335
1.1669644
1.1664396
1.1663805
1.1663909
1.1663973
1.1663987
1.1663987
1.1663986
1.1663986
1.1663986
1.1663986
1.1663986
1.1663986
1.1663986
1.1663986
1.1663986
1.1663986
1.1663986
1.1663986
1.1663986
1.1663986
1.1663986
1.1663986
1.1663986
1.1663986
1.1663986
1.1663986
1.1663986
1.1663986
1.1663986
1.1663986
1.1663986
1.1663986
1.1663986
1.1663986
1.1663986
1.1663986
1.1663986
1.1663986
1.1663986
1.1663986
1.1663986
1.1663986
1.1663986
1.1663986
1.1663986
1.1663986
1.1663986
1.1663986
1.1663986
1.1663986
1.1663986
1.1663986
1.1663986
1.1663986
1.1663986
1.1663986
1.1663986
1.1663986
1.1663986
1.1663986
1.1663986
1.1663986
1.1663986
1.1663986
1.2589806
1.0420434
1.2681353
1.1762961
1.1770355
1.1965241
1.1857745
1.1906562
1.1882333
1.1987202
1.2009398
1.1950566
1.1854484
1.1747793
1.169224
1.1669362
1.1664355
1.1663807
1.1663911
1.1663973
1.1663987
1.1663987
1.1663986
1.1663986
1.1663986
1.1663986
1.1663986
1.1663986
1.1663986
1.1663986
1.1663986
1.1663986
1.1663986
1.1663986
1.1663986
1.1663986
1.1663986
1.1663986
1.1663986
1.1663986
1.1663986
1.1663986
1.1663986
1.1663986
1.1663986
1.1663986
1.1663986
1.1663986
1.1663986
1.1663986
1.1663986
1.1663986
1.1663986
1.1663986
1.1663986
1.1663986
1.1663986
1.1663986
1.1663986
1.1663986
1.1663986
1.1663986
1.1663986
1.1663986
1.1663986
1.1663986
1.1663986
1.1663986
1.1663986
1.1663986
1.1663986
1.1663986
1.1663986
1.1663986
1.1663986
1.1663986
1.1663986
1.1663986
1.1663986
1.1663986
1.2541732
1.050372
1.2595981
1.1789668
1.1780447
1.1944601
1.1858458
1.1903007
1.1881135
1.1981655
1.2011567
1.1953256
1.1861464
1.1753674
1.1695437
1.1670486
1.1664579
1.1663817
1.1663903
1.166397
1.1663986
1.1663987
1.1663987
1.1663986
1.1663986
1.1663986
1.1663986
1.1663986
1.1663986
1.1663986
1.1663986
1.1663986
1.1663986
1.1663986
1.1663986
1.1663986
1.1663986
1.1663986
1.1663986
1.1663986
1.1663986
1.1663986
1.1663986
1.1663986
1.1663986
1.1663986
1.1663986
1.1663986
1.1663986
1.1663986
1.1663986
1.1663986
1.1663986
1.1663986
1.1663986
1.1663986
1.1663986
1.1663986
1.1663986
1.1663986
1.1663986
1.1663986
1.1663986
1.1663986
1.1663986
1.1663986
1.1663986
1.1663986
1.1663986
1.1663986
1.1663986
1.1663986
1.1663986
1.1663986
1.1663986
1.1663986
1.1663986
1.1663986
1.1663986
1.1663986
1.1428577
1.1829029
1.1512344
1.1593407
1.1594679
1.1592366
1.1611731
1.1587119
1.1576651
1.1579718
1.1599763
1.1630496
1.1650947
1.1660951
1.1663571
1.1664041
1.1664019
1.1663996
1.1663987
1.1663986
1.1663986
1.1663986
1.1663986
1.1663986
1.1663986
1.1663986
1.1663986
1.1663986
1.1663986
1.1663986
1.1663986
1.1663986
1.1663986
1.1663986
1.1663986
1.1663986
1.1663986
1.1663986
1.1663986
1.1663986
1.1663986
1.1663986
1.1663986
1.1663986
1.1663986
1.1663986
1.1663986
1.1663986
1.1663986
1.1663986
1.1663986
1.1663986
1.1663986
1.1663986
1.1663986
1.1663986
1.1663986
1.1663986
1.1663986
1.1663986
1.1663986
1.1663986
1.1663986
1.1663986
1.1663986
1.1663986
1.1663986
1.1663986
1.1663986
1.1663986
1.1663986
1.1663986
1.1663986
1.1663986
1.1663986
1.1663986
1.1663986
1.1663986
1.1663986
1.1663986
1.1427195
1.1827553
1.1502819
1.1598054
1.1596447
1.159272
1.1606559
1.1579964
1.1572177
1.1576446
1.1596733
1.1628029
1.164903
1.1660204
1.1663402
1.1664034
1.1664024
1.1663999
1.1663987
1.1663986
1.1663986
1.1663986
1.1663986
1.1663986
1.1663986
1.1663986
1.1663986
1.1663986
1.1663986
1.1663986
1.1663986
1.1663986
1.1663986
1.1663986
1.1663986
1.1663986
1.1663986
1.1663986
1.1663986
1.1663986
1.1663986
1.1663986
1.1663986
1.1663986
1.1663986
1.1663986
1.1663986
1.1663986
1.1663986
1.1663986
1.1663986
1.1663986
1.1663986
1.1663986
1.1663986
1.1663986
1.1663986
1.1663986
1.1663986
1.1663986
1.1663986
1.1663986
1.1663986
1.1663986
1.1663986
1.1663986
1.1663986
1.1663986
1.1663986
1.1663986
1.1663986
1.1663986
1.1663986
1.1663986
1.1663986
1.1663986
1.1663986
1.1663986
1.1663986
1.1663986
1.1427948
1.1811109
1.1503784
1.1587091
1.1588375
1.1585049
1.1602143
1.1575508
1.157044
1.1576233
1.1597502
1.1628576
1.1649216
1.166021
1.166339
1.1664029
1.1664024
1.1663999
1.1663987
1.1663986
1.1663986
1.1663986
1.1663986
1.1663986
1.1663986
1.1663986
1.1663986
1.1663986
1.1663986
1.1663986
1.1663986
1.1663986
1.1663986
1.1663986
1.1663986
1.1663986
1.1663986
1.1663986
1.1663986
1.1663986
1.1663986
1.1663986
1.1663986
1.1663986
1.1663986
1.1663986
1.1663986
1.1663986
1.1663986
1.1663986
1.1663986
1.1663986
1.1663986
1.1663986
1.1663986
1.1663986
1.1663986
1.1663986
1.1663986
1.1663986
1.1663986
1.1663986
1.1663986
1.1663986
1.1663986
1.1663986
1.1663986
1.1663986
1.1663986
1.1663986
1.1663986
1.1663986
1.1663986
1.1663986
1.1663986
1.1663986
1.1663986
1.1663986
1.1663986
1.1663986
1.1433414
1.1806124
1.1507508
1.1589411
1.1590472
1.1586709
1.1603652
1.1578127
1.1573425
1.15784
1.1599143
1.1629316
1.1649489
1.1660262
1.1663394
1.1664027
1.1664023
1.1663999
1.1663987
1.1663986
1.1663986
1.1663986
1.1663986
1.1663986
1.1663986
1.1663986
1.1663986
1.1663986
1.1663986
1.1663986
1.1663986
1.1663986
1.1663986
1.1663986
1.1663986
1.1663986
1.1663986
1.1663986
1.1663986
1.1663986
1.1663986
1.1663986
1.1663986
1.1663986
1.1663986
1.1663986
1.1663986
1.1663986
1.1663986
1.1663986
1.1663986
1.1663986
1.1663986
1.1663986
1.1663986
1.1663986
1.1663986
1.1663986
1.1663986
1.1663986
1.1663986
1.1663986
1.1663986
1.1663986
1.1663986
1.1663986
1.1663986
1.1663986
1.1663986
1.1663986
1.1663986
1.1663986
1.1663986
1.1663986
1.1663986
1.1663986
1.1663986
1.1663986
1.1663986
1.1663986
1.1439623
1.1801937
1.1511841
1.1591256
1.1592358
1.158866
1.1605292
1.1580686
1.1576108
1.1580665
1.1600731
1.1630044
1.1649745
1.1660309
1.1663397
1.1664025
1.1664022
1.1663998
1.1663987
1.1663986
1.1663986
1.1663986
1.1663986
1.1663986
1.1663986
1.1663986
1.1663986
1.1663986
1.1663986
1.1663986
1.1663986
1.1663986
1.1663986
1.1663986
1.1663986
1.1663986
1.1663986
1.1663986
1.1663986
1.1663986
1.1663986
1.1663986
1.1663986
1.1663986
1.1663986
1.1663986
1.1663986
1.1663986
1.1663986
1.1663986
1.1663986
1.1663986
1.1663986
1.1663986
1.1663986
1.1663986
1.1663986
1.1663986
1.1663986
1.1663986
1.1663986
1.1663986
1.1663986
1.1663986
1.1663986
1.1663986
1.1663986
1.1663986
1.1663986
1.1663986
1.1663986
1.1663986
1.1663986
1.1663986
1.1663986
1.1663986
1.1663986
1.1663986
1.1663986
1.1663986
1.1445845
1.1798162
1.1516267
1.1593272
1.1594396
1.1590664
1.160694
1.1583143
1.1578659
1.1582822
1.1602245
1.1630741
1.1649989
1.1660354
1.1663399
1.1664023
1.1664021
1.1663998
1.1663987
1.1663986
1.1663986
1.1663986
1.1663986
1.1663986
1.1663986
1.1663986
1.1663986
1.1663986
1.1663986
1.1663986
1.1663986
1.1663986
1.1663986
1.1663986
1.1663986
1.1663986
1.1663986
1.1663986
1.1663986
1.1663986
1.1663986
1.1663986
1.1663986
1.1663986
1.1663986
1.1663986
1.1663986
1.1663986
1.1663986
1.1663986
1.1663986
1.1663986
1.1663986
1.1663986
1.1663986
1.1663986
1.1663986
1.1663986
1.1663986
1.1663986
1.1663986
1.1663986
1.1663986
1.1663986
1.1663986
1.1663986
1.1663986
1.1663986
1.1663986
1.1663986
1.1663986
1.1663986
1.1663986
1.1663986
1.1663986
1.1663986
1.1663986
1.1663986
1.1663986
1.1663986
1.1451859
1.1794475
1.1520488
1.1595191
1.1596352
1.1592577
1.1608501
1.1585509
1.1581126
1.1584917
1.1603727
1.1631427
1.1650232
1.1660399
1.1663402
1.1664021
1.166402
1.1663998
1.1663987
1.1663986
1.1663986
1.1663986
1.1663986
1.1663986
1.1663986
1.1663986
1.1663986
1.1663986
1.1663986
1.1663986
1.1663986
1.1663986
1.1663986
1.1663986
1.1663986
1.1663986
1.1663986
1.1663986