/*--------------------------------*- C++ -*----------------------------------*\
| =========                 |                                                 |
| \\      /  F ield         | OpenFOAM: The Open Source CFD Toolbox           |
|  \\    /   O peration     | Version:  2406                                  |
|   \\  /    A nd           | Website:  www.openfoam.com                      |
|    \\/     M anipulation  |                                                 |
\*---------------------------------------------------------------------------*/
FoamFile
{
    version     2.0;
    format      ascii;
    arch        "LSB;label=32;scalar=64";
    class       volScalarField;
    location    "9e-05";
    object      T;
}
// * * * * * * * * * * * * * * * * * * * * * * * * * * * * * * * * * * * * * //

dimensions      [0 0 0 1 0 0 0];

internalField   nonuniform List<scalar> 
16000
(
298.47305
297.5379
298.19147
298.02111
298.07625
298.03521
298.05538
298.04408
298.06819
298.06385
298.05716
298.03128
298.01375
298.00259
298.00005
297.9998
297.99994
297.99999
298
298
298
298
298
298
298
298
298
298
298
298
298
298
298
298
298
298
298
298
298
298
298
298
298
298
298
298
298
298
298
298
298
298
298
298
298
298
298
298
298
298
298
298
298
298
298
298
298
298
298
298
298
298
298
298
298
298
298
298
298
298
298.42476
297.90263
298.19932
298.17837
298.19357
298.16933
298.17076
298.16848
298.20559
298.20849
298.18396
298.10899
298.05068
298.01438
298.00285
297.99996
297.99988
297.99994
297.99999
298
298
298
298
298
298
298
298
298
298
298
298
298
298
298
298
298
298
298
298
298
298
298
298
298
298
298
298
298
298
298
298
298
298
298
298
298
298
298
298
298
298
298
298
298
298
298
298
298
298
298
298
298
298
298
298
298
298
298
298
298
298.44493
298.24621
298.13657
298.41474
298.30141
298.32506
298.27919
298.30429
298.34344
298.36324
298.3232
298.20206
298.10067
298.03243
298.0074
298.00044
297.99981
297.99989
297.99998
298
298
298
298
298
298
298
298
298
298
298
298
298
298
298
298
298
298
298
298
298
298
298
298
298
298
298
298
298
298
298
298
298
298
298
298
298
298
298
298
298
298
298
298
298
298
298
298
298
298
298
298
298
298
298
298
298
298
298
298
298
298.44222
298.65024
298.04663
298.6747
298.39667
298.49162
298.38757
298.44429
298.47664
298.5258
298.47686
298.31214
298.1631
298.05592
298.01378
298.00119
297.99975
297.99982
297.99996
298
298
298
298
298
298
298
298
298
298
298
298
298
298
298
298
298
298
298
298
298
298
298
298
298
298
298
298
298
298
298
298
298
298
298
298
298
298
298
298
298
298
298
298
298
298
298
298
298
298
298
298
298
298
298
298
298
298
298
298
298
298.43093
299.08546
297.94287
298.95665
298.47719
298.66128
298.48397
298.60479
298.60586
298.69573
298.64138
298.43705
298.2385
298.08601
298.02258
298.00241
297.9997
297.99973
297.99994
297.99999
298
298
298
298
298
298
298
298
298
298
298
298
298
298
298
298
298
298
298
298
298
298
298
298
298
298
298
298
298
298
298
298
298
298
298
298
298
298
298
298
298
298
298
298
298
298
298
298
298
298
298
298
298
298
298
298
298
298
298
298
298.38048
299.61542
297.78221
299.26453
298.55772
298.83292
298.61038
298.753
298.72626
298.87743
298.81644
298.57671
298.32741
298.12341
298.03421
298.00426
297.99971
297.99964
297.9999
297.99999
298
298
298
298
298
298
298
298
298
298
298
298
298
298
298
298
298
298
298
298
298
298
298
298
298
298
298
298
298
298
298
298
298
298
298
298
298
298
298
298
298
298
298
298
298
298
298
298
298
298
298
298
298
298
298
298
298
298
298
298
298.29721
300.24274
297.56041
299.60881
298.62725
299.02063
298.76243
298.88831
298.84797
299.06756
299.00307
298.7311
298.42995
298.1687
298.04902
298.00689
297.99981
297.99953
297.99986
297.99998
298
298
298
298
298
298
298
298
298
298
298
298
298
298
298
298
298
298
298
298
298
298
298
298
298
298
298
298
298
298
298
298
298
298
298
298
298
298
298
298
298
298
298
298
298
298
298
298
298
298
298
298
298
298
298
298
298
298
298
298
298.1584
300.99645
297.27253
300.00105
298.68112
299.23268
298.93649
298.99803
298.98641
299.26147
299.20152
298.90082
298.54628
298.22234
298.06734
298.01042
298.00002
297.99941
297.9998
297.99997
298
298
298
298
298
298
298
298
298
298
298
298
298
298
298
298
298
298
298
298
298
298
298
298
298
298
298
298
298
298
298
298
298
298
298
298
298
298
298
298
298
298
298
298
298
298
298
298
298
298
298
298
298
298
298
298
298
298
298
298
297.96935
301.87546
296.92685
300.4354
298.72356
299.46157
299.11883
299.12332
299.12422
299.46139
299.41133
299.0849
298.6766
298.28479
298.0895
298.015
298.00038
297.99927
297.99973
297.99996
298
298
298
298
298
298
298
298
298
298
298
298
298
298
298
298
298
298
298
298
298
298
298
298
298
298
298
298
298
298
298
298
298
298
298
298
298
298
298
298
298
298
298
298
298
298
298
298
298
298
298
298
298
298
298
298
298
298
298
298
297.72092
302.9106
296.50983
300.91491
298.75882
299.70531
299.30837
299.27748
299.25722
299.65884
299.63921
299.28546
298.82123
298.35653
298.11588
298.02077
298.00093
297.99913
297.99966
297.99995
298
298
298
298
298
298
298
298
298
298
298
298
298
298
298
298
298
298
298
298
298
298
298
298
298
298
298
298
298
298
298
298
298
298
298
298
298
298
298
298
298
298
298
298
298
298
298
298
298
298
298
298
298
298
298
298
298
298
298
298
297.37756
304.18874
295.96337
301.46919
298.78616
299.96516
299.50452
299.44991
299.39763
299.86056
299.88192
299.50162
298.98113
298.43836
298.1469
298.0279
298.00171
297.99898
297.99957
297.99993
298
298
298
298
298
298
298
298
298
298
298
298
298
298
298
298
298
298
298
298
298
298
298
298
298
298
298
298
298
298
298
298
298
298
298
298
298
298
298
298
298
298
298
298
298
298
298
298
298
298
298
298
298
298
298
298
298
298
298
298
296.91346
305.7895
295.25411
302.11773
298.80032
300.24969
299.70471
299.63869
299.54823
300.06807
300.14073
299.73601
299.15739
298.53129
298.18311
298.03659
298.00276
297.99883
297.99947
297.9999
298
298
298
298
298
298
298
298
298
298
298
298
298
298
298
298
298
298
298
298
298
298
298
298
298
298
298
298
298
298
298
298
298
298
298
298
298
298
298
298
298
298
298
298
298
298
298
298
298
298
298
298
298
298
298
298
298
298
298
298
296.38064
307.67993
294.39674
302.87022
298.80765
300.55631
299.9157
299.84118
299.70827
300.28666
300.41182
299.99169
299.35213
298.63661
298.22519
298.04707
298.00414
297.99868
297.99936
297.99987
298
298
298
298
298
298
298
298
298
298
298
298
298
298
298
298
298
298
298
298
298
298
298
298
298
298
298
298
298
298
298
298
298
298
298
298
298
298
298
298
298
298
298
298
298
298
298
298
298
298
298
298
298
298
298
298
298
298
298
298
295.80395
309.82811
293.40514
303.73444
298.8085
300.88639
300.14356
300.05961
299.87871
300.51721
300.69657
300.26984
299.56764
298.75597
298.274
298.05964
298.00591
297.99854
297.99923
297.99983
298
298
298
298
298
298
298
298
298
298
298
298
298
298
298
298
298
298
298
298
298
298
298
298
298
298
298
298
298
298
298
298
298
298
298
298
298
298
298
298
298
298
298
298
298
298
298
298
298
298
298
298
298
298
298
298
298
298
298
298
295.11722
312.37894
292.23869
304.74709
298.79793
301.2439
300.39219
300.30122
300.06326
300.76159
300.99593
300.57216
299.80612
298.89118
298.33051
298.07465
298.00814
297.99842
297.99909
297.99979
297.99999
298
298
298
298
298
298
298
298
298
298
298
298
298
298
298
298
298
298
298
298
298
298
298
298
298
298
298
298
298
298
298
298
298
298
298
298
298
298
298
298
298
298
298
298
298
298
298
298
298
298
298
298
298
298
298
298
298
298
298
294.28014
315.47526
290.85639
305.95091
298.76651
301.64069
300.66524
300.57537
300.26877
301.02485
301.31283
300.90237
300.07012
299.04417
298.39576
298.09247
298.01093
297.99831
297.99893
297.99974
297.99999
298
298
298
298
298
298
298
298
298
298
298
298
298
298
298
298
298
298
298
298
298
298
298
298
298
298
298
298
298
298
298
298
298
298
298
298
298
298
298
298
298
298
298
298
298
298
298
298
298
298
298
298
298
298
298
298
298
298
298
293.32415
319.13283
289.28294
307.38114
298.72544
302.08947
300.97039
300.88755
300.50256
301.31629
301.6571
301.26864
300.364
299.21716
298.47068
298.11339
298.01433
297.99824
297.99876
297.99968
297.99998
298.00001
298
298
298
298
298
298
298
298
298
298
298
298
298
298
298
298
298
298
298
298
298
298
298
298
298
298
298
298
298
298
298
298
298
298
298
298
298
298
298
298
298
298
298
298
298
298
298
298
298
298
298
298
298
298
298
298
298
298
292.20294
323.5088
287.47027
309.08444
298.64632
302.5925
301.29476
301.23684
300.76218
301.64048
302.041
301.68354
300.69457
299.41269
298.55594
298.13749
298.01834
297.99819
297.99856
297.99961
297.99997
298.00001
298
298
298
298
298
298
298
298
298
298
298
298
298
298
298
298
298
298
298
298
298
298
298
298
298
298
298
298
298
298
298
298
298
298
298
298
298
298
298
298
298
298
298
298
298
298
298
298
298
298
298
298
298
298
298
298
298
298
290.82157
328.81806
285.39681
311.07149
298.56491
303.17004
301.65851
301.6067
301.03721
301.9877
302.46408
302.15021
301.0633
299.63117
298.6511
298.16444
298.02284
297.99815
297.99835
297.99953
297.99997
298.00001
298
298
298
298
298
298
298
298
298
298
298
298
298
298
298
298
298
298
298
298
298
298
298
298
298
298
298
298
298
298
298
298
298
298
298
298
298
298
298
298
298
298
298
298
298
298
298
298
298
298
298
298
298
298
298
298
298
298
288.94057
336.34417
282.43877
313.85098
298.44245
303.73331
302.01339
301.96931
301.32718
302.36713
302.91383
302.64453
301.45439
299.86418
298.75211
298.19295
298.02756
297.99811
297.99813
297.99946
297.99996
298.00001
298
298
298
298
298
298
298
298
298
298
298
298
298
298
298
298
298
298
298
298
298
298
298
298
298
298
298
298
298
298
298
298
298
298
298
298
298
298
298
298
298
298
298
298
298
298
298
298
298
298
298
298
298
298
298
298
298
298
287.10266
346.07657
278.65597
317.17056
298.02092
304.25446
302.42338
302.44482
301.68219
302.80184
303.37496
303.11758
301.83748
300.0899
298.84957
298.21993
298.03191
297.99803
297.99792
297.99939
297.99995
298.00001
298
298
298
298
298
298
298
298
298
298
298
298
298
298
298
298
298
298
298
298
298
298
298
298
298
298
298
298
298
298
298
298
298
298
298
298
298
298
298
298
298
298
298
298
298
298
298
298
298
298
298
298
298
298
298
298
298
298
285.16027
356.28705
274.9695
320.52655
297.599
304.93731
302.82341
302.93719
302.04002
303.25204
303.82566
303.53885
302.17735
300.28186
298.92868
298.24028
298.03483
297.99786
297.99773
297.99934
297.99995
298.00001
298
298
298
298
298
298
298
298
298
298
298
298
298
298
298
298
298
298
298
298
298
298
298
298
298
298
298
298
298
298
298
298
298
298
298
298
298
298
298
298
298
298
298
298
298
298
298
298
298
298
298
298
298
298
298
298
298
298
283.32715
366.00011
271.79913
324.0019
297.11148
305.71787
303.07489
303.31847
302.36714
303.70665
304.23948
303.8893
302.44268
300.41028
298.97252
298.24813
298.03512
297.99754
297.99762
297.99933
297.99995
298.00001
298
298
298
298
298
298
298
298
298
298
298
298
298
298
298
298
298
298
298
298
298
298
298
298
298
298
298
298
298
298
298
298
298
298
298
298
298
298
298
298
298
298
298
298
298
298
298
298
298
298
298
298
298
298
298
298
298
298
282.82994
372.44385
269.35221
327.15066
296.42191
306.45723
303.08974
303.54194
302.61661
304.14175
304.56384
304.15602
302.60137
300.4459
298.96764
298.23968
298.03216
297.99708
297.9976
297.99936
297.99996
298.00001
298
298
298
298
298
298
298
298
298
298
298
298
298
298
298
298
298
298
298
298
298
298
298
298
298
298
298
298
298
298
298
298
298
298
298
298
298
298
298
298
298
298
298
298
298
298
298
298
298
298
298
298
298
298
298
298
298
298
281.57523
380.25794
266.75742
329.46482
295.77418
307.10369
302.77783
303.72307
302.60575
304.56574
304.77662
304.32892
302.63015
300.37878
298.91275
298.21572
298.02647
297.9966
297.99769
297.99943
297.99997
298.00001
298
298
298
298
298
298
298
298
298
298
298
298
298
298
298
298
298
298
298
298
298
298
298
298
298
298
298
298
298
298
298
298
298
298
298
298
298
298
298
298
298
298
298
298
298
298
298
298
298
298
298
298
298
298
298
298
298
298
277.67265
392.82085
264.18692
329.37888
295.76549
307.42046
302.24201
303.97865
302.52589
304.74347
304.97056
304.36888
302.52775
300.22885
298.82141
298.18215
298.0195
297.99625
297.99788
297.99953
297.99998
298.00001
298
298
298
298
298
298
298
298
298
298
298
298
298
298
298
298
298
298
298
298
298
298
298
298
298
298
298
298
298
298
298
298
298
298
298
298
298
298
298
298
298
298
298
298
298
298
298
298
298
298
298
298
298
298
298
298
298
298
275.0726
398.92983
264.04533
326.31232
296.4803
306.99448
301.95983
303.89467
302.54437
304.82829
305.08379
304.30585
302.34031
300.04404
298.72114
298.14899
298.01327
297.99613
297.99811
297.99963
297.99999
298.00001
298
298
298
298
298
298
298
298
298
298
298
298
298
298
298
298
298
298
298
298
298
298
298
298
298
298
298
298
298
298
298
298
298
298
298
298
298
298
298
298
298
298
298
298
298
298
298
298
298
298
298
298
298
298
298
298
298
298
276.87963
383.03259
267.83526
322.02062
297.08893
306.46318
302.03779
303.49546
302.62321
304.88126
305.17575
304.18501
302.16053
299.89221
298.6457
298.12602
298.00933
297.99618
297.9983
297.9997
298
298.00001
298
298
298
298
298
298
298
298
298
298
298
298
298
298
298
298
298
298
298
298
298
298
298
298
298
298
298
298
298
298
298
298
298
298
298
298
298
298
298
298
298
298
298
298
298
298
298
298
298
298
298
298
298
298
298
298
298
298
279.55863
361.84644
274.26451
317.8806
298.317
305.5322
302.15222
303.23931
302.7182
304.86523
305.27314
304.09667
302.09384
299.84063
298.62411
298.12032
298.00847
297.99621
297.99836
297.99971
298
298.00001
298
298
298
298
298
298
298
298
298
298
298
298
298
298
298
298
298
298
298
298
298
298
298
298
298
298
298
298
298
298
298
298
298
298
298
298
298
298
298
298
298
298
298
298
298
298
298
298
298
298
298
298
298
298
298
298
298
298
281.09717
355.57731
277.35031
315.79621
299.05172
304.85401
302.22236
303.15626
302.71754
304.76784
305.32533
304.16686
302.24599
299.97217
298.69582
298.14548
298.01348
297.99644
297.99817
297.99963
297.99999
298.00001
298
298
298
298
298
298
298
298
298
298
298
298
298
298
298
298
298
298
298
298
298
298
298
298
298
298
298
298
298
298
298
298
298
298
298
298
298
298
298
298
298
298
298
298
298
298
298
298
298
298
298
298
298
298
298
298
298
298
301.2287
289.72626
300.62278
295.24706
296.80703
296.6156
296.97556
296.48583
296.2396
296.2422
296.69612
297.32597
297.73909
297.93965
297.99178
298.00113
298.00065
298.00019
298.00001
298
298
298
298
298
298
298
298
298
298
298
298
298
298
298
298
298
298
298
298
298
298
298
298
298
298
298
298
298
298
298
298
298
298
298
298
298
298
298
298
298
298
298
298
298
298
298
298
298
298
298
298
298
298
298
298
298
298
298
298
298
301.14801
289.79088
300.72474
295.03763
296.67946
296.5624
296.82136
296.29126
296.12419
296.16691
296.61788
297.27112
297.69878
297.92453
297.98843
298.00101
298.00077
298.00025
298.00002
298
298
298
298
298
298
298
298
298
298
298
298
298
298
298
298
298
298
298
298
298
298
298
298
298
298
298
298
298
298
298
298
298
298
298
298
298
298
298
298
298
298
298
298
298
298
298
298
298
298
298
298
298
298
298
298
298
298
298
298
298
300.85429
289.85866
300.37446
294.95464
296.54713
296.4202
296.71258
296.2023
296.08706
296.16616
296.632
297.28157
297.70224
297.92455
297.98818
298.00092
298.00075
298.00025
298.00002
298
298
298
298
298
298
298
298
298
298
298
298
298
298
298
298
298
298
298
298
298
298
298
298
298
298
298
298
298
298
298
298
298
298
298
298
298
298
298
298
298
298
298
298
298
298
298
298
298
298
298
298
298
298
298
298
298
298
298
298
298
300.73224
290.08841
300.28821
295.0296
296.55442
296.4493
296.73874
296.25466
296.14638
296.21095
296.665
297.29641
297.70766
297.92557
297.98826
298.00087
298.00073
298.00025
298.00002
298
298
298
298
298
298
298
298
298
298
298
298
298
298
298
298
298
298
298
298
298
298
298
298
298
298
298
298
298
298
298
298
298
298
298
298
298
298
298
298
298
298
298
298
298
298
298
298
298
298
298
298
298
298
298
298
298
298
298
298
298
300.64294
290.30474
300.20776
295.10991
296.59359
296.48845
296.772
296.30753
296.20146
296.25865
296.6973
297.31107
297.71276
297.92649
297.98831
298.00082
298.00072
298.00024
298.00002
298
298
298
298
298
298
298
298
298
298
298
298
298
298
298
298
298
298
298
298
298
298
298
298
298
298
298
298
298
298
298
298
298
298
298
298
298
298
298
298
298
298
298
298
298
298
298
298
298
298
298
298
298
298
298
298
298
298
298
298
298
300.5633
290.52014
300.13679
295.19263
296.63404
296.52855
296.80565
296.35806
296.25387
296.30409
296.72807
297.32509
297.71762
297.92736
297.98835
298.00078
298.0007
298.00024
298.00002
298
298
298
298
298
298
298
298
298
298
298
298
298
298
298
298
298
298
298
298
298
298
298
298
298
298
298
298
298
298
298
298
298
298
298
298
298
298
298
298
298
298
298
298
298
298
298
298
298
298
298
298
298
298
298
298
298
298
298
298
298
300.48562
290.72704
300.06831
295.27245
296.6732
296.5668
296.8375
296.40666
296.3045
296.34822
296.75818
297.33891
297.72246
297.92824
297.98839
298.00074
298.00069
298.00024
298.00002
298
298
298
298
298
298
298
298
298
298
298
298
298
298
298
298
298
298
298
298
298
298
298
298
298
298
298
298
298
298
298
298
298
298
298
298
298
298
298
298
298
298
298
298
298
298
298
298
298
298
298
298
298
298
298
298
298
298
298
298
298
300.41081
290.92859
300.0023
295.34999
296.71154
296.60432
296.8686
296.45406
296.35394
296.39159
296.78794
297.35269
297.72735
297.92916
297.98845
298.0007
298.00068
298.00023
298.00002
298
298
298
298
298
298
298
298
298
298
298
298
298
298
298
298
298
298
298
298
298
298
298
298
298
298
298
298
298
298
298
298
298
298
298
298
298
298
298
298
298
298
298
298
298
298
298
298
298
298
298
298
298
298
298
298
298
298
298
298
298
300.33787
291.12699
299.93826
295.42604
296.74949
296.64146
296.89935
296.50067
296.40264
296.43455
296.81766
297.3666
297.73234
297.93012
297.98852
298.00066
298.00066
298.00023
298.00002
298
298
298
298
298
298
298
298
298
298
298
298
298
298
298
298
298
298
298
298
298
298
298
298
298
298
298
298
298
298
298
298
298
298
298
298
298
298
298
298
298
298
298
298
298
298
298
298
298
298
298
298
298
298
298
298
298
298
298
298
298
300.26645
291.32299
299.87556
295.50118
296.78717
296.67848
296.92982
296.54678
296.45079
296.47735
296.84748
297.3807
297.73748
297.93114
297.9886
298.00062
298.00065
298.00023
298.00002
298
298
298
298
298
298
298
298
298
298
298
298
298
298
298
298
298
298
298
298
298
298
298
298
298
298
298
298
298
298
298
298
298
298
298
298
298
298
298
298
298
298
298
298
298
298
298
298
298
298
298
298
298
298
298
298
298
298
298
298
298
300.19573
291.51896
299.8135
295.57606
296.82492
296.71566
296.96036
296.59268
296.49887
296.52035
296.87771
297.39517
297.74284
297.93225
297.9887
298.00058
298.00063
298.00022
298.00002
298
298
298
298
298
298
298
298
298
298
298
298
298
298
298
298
298
298
298
298
298
298
298
298
298
298
298
298
298
298
298
298
298
298
298
298
298
298
298
298
298
298
298
298
298
298
298
298
298
298
298
298
298
298
298
298
298
298
298
298
298
300.12515
291.71597
299.75162
295.65124
296.86295
296.75327
296.99111
296.63873
296.54707
296.56384
296.90856
297.41012
297.74846
297.93344
297.98883
298.00054
298.00062
298.00022
298.00002
298
298
298
298
298
298
298
298
298
298
298
298
298
298
298
298
298
298
298
298
298
298
298
298
298
298
298
298
298
298
298
298
298
298
298
298
298
298
298
298
298
298
298
298
298
298
298
298
298
298
298
298
298
298
298
298
298
298
298
298
298
300.05403
291.91587
299.68934
295.72724
296.90153
296.79159
297.02238
296.68524
296.59584
296.60817
296.94031
297.42571
297.75442
297.93475
297.98897
298.00051
298.0006
298.00022
298.00002
298
298
298
298
298
298
298
298
298
298
298
298
298
298
298
298
298
298
298
298
298
298
298
298
298
298
298
298
298
298
298
298
298
298
298
298
298
298
298
298
298
298
298
298
298
298
298
298
298
298
298
298
298
298
298
298
298
298
298
298
298
299.98171
292.12038
299.62618
295.80472
296.94092
296.83091
297.05441
296.73256
296.64546
296.65368
296.97321
297.44206
297.76079
297.93618
297.98915
298.00047
298.00058
298.00021
298.00002
298
298
298
298
298
298
298
298
298
298
298
298
298
298
298
298
298
298
298
298
298
298
298
298
298
298
298
298
298
298
298
298
298
298
298
298
298
298
298
298
298
298
298
298
298
298
298
298
298
298
298
298
298
298
298
298
298
298
298
298
298
299.9077
292.33083
299.56153
295.88431
296.98137
296.87151
297.08743
296.78102
296.69623
296.70071
297.0075
297.45933
297.76761
297.93777
297.98936
298.00044
298.00057
298.00021
298.00002
298
298
298
298
298
298
298
298
298
298
298
298
298
298
298
298
298
298
298
298
298
298
298
298
298
298
298
298
298
298
298
298
298
298
298
298
298
298
298
298
298
298
298
298
298
298
298
298
298
298
298
298
298
298
298
298
298
298
298
298
298
299.8313
292.54926
299.49498
295.9666
297.02323
296.91371
297.12176
296.83104
296.74863
296.74966
297.04352
297.47771
297.77499
297.93953
297.9896
298.0004
298.00055
298.0002
298.00002
298
298
298
298
298
298
298
298
298
298
298
298
298
298
298
298
298
298
298
298
298
298
298
298
298
298
298
298
298
298
298
298
298
298
298
298
298
298
298
298
298
298
298
298
298
298
298
298
298
298
298
298
298
298
298
298
298
298
298
298
298
299.75202
292.77723
299.42617
296.0523
297.06674
296.95776
297.15776
296.883
296.80298
296.80091
297.08156
297.49734
297.78298
297.94147
297.98989
298.00037
298.00053
298.0002
298.00002
298
298
298
298
298
298
298
298
298
298
298
298
298
298
298
298
298
298
298
298
298
298
298
298
298
298
298
298
298
298
298
298
298
298
298
298
298
298
298
298
298
298
298
298
298
298
298
298
298
298
298
298
298
298
298
298
298
298
298
298
298
299.66924
293.01658
299.35462
296.14204
297.11226
297.00406
297.19569
296.93728
296.85972
296.85484
297.12193
297.51841
297.79167
297.94364
297.99021
298.00034
298.0005
298.00019
298.00002
298
298
298
298
298
298
298
298
298
298
298
298
298
298
298
298
298
298
298
298
298
298
298
298
298
298
298
298
298
298
298
298
298
298
298
298
298
298
298
298
298
298
298
298
298
298
298
298
298
298
298
298
298
298
298
298
298
298
298
298
298
299.58222
293.26941
299.27985
296.23645
297.16014
297.0531
297.2358
296.99429
296.91928
296.91191
297.16499
297.54112
297.80115
297.94604
297.99059
298.00031
298.00048
298.00018
298.00002
298
298
298
298
298
298
298
298
298
298
298
298
298
298
298
298
298
298
298
298
298
298
298
298
298
298
298
298
298
298
298
298
298
298
298
298
298
298
298
298
298
298
298
298
298
298
298
298
298
298
298
298
298
298
298
298
298
298
298
298
298
299.49054
293.53734
299.2016
296.33618
297.21083
297.10523
297.27845
297.05449
296.98204
296.97254
297.21108
297.56564
297.8115
297.94871
297.99103
298.00028
298.00046
298.00017
298.00002
298
298
298
298
298
298
298
298
298
298
298
298
298
298
298
298
298
298
298
298
298
298
298
298
298
298
298
298
298
298
298
298
298
298
298
298
298
298
298
298
298
298
298
298
298
298
298
298
298
298
298
298
298
298
298
298
298
298
298
298
298
299.39337
293.8228
299.11947
296.44193
297.26486
297.16076
297.3241
297.1185
297.04836
297.03723
297.26059
297.59219
297.82281
297.95167
297.99152
298.00026
298.00043
298.00016
298.00001
298
298
298
298
298
298
298
298
298
298
298
298
298
298
298
298
298
298
298
298
298
298
298
298
298
298
298
298
298
298
298
298
298
298
298
298
298
298
298
298
298
298
298
298
298
298
298
298
298
298
298
298
298
298
298
298
298
298
298
298
298
299.29011
294.12809
299.03305
296.55441
297.32268
297.22022
297.37318
297.18649
297.11905
297.10647
297.31395
297.62101
297.83519
297.95495
297.99207
298.00023
298.0004
298.00015
298.00001
298
298
298
298
298
298
298
298
298
298
298
298
298
298
298
298
298
298
298
298
298
298
298
298
298
298
298
298
298
298
298
298
298
298
298
298
298
298
298
298
298
298
298
298
298
298
298
298
298
298
298
298
298
298
298
298
298
298
298
298
298
299.1801
294.45588
298.94154
296.67452
297.38455
297.28443
297.42625
297.2589
297.19468
297.1808
297.37155
297.65231
297.84874
297.95857
297.99269
298.0002
298.00037
298.00014
298.00001
298
298
298
298
298
298
298
298
298
298
298
298
298
298
298
298
298
298
298
298
298
298
298
298
298
298
298
298
298
298
298
298
298
298
298
298
298
298
298
298
298
298
298
298
298
298
298
298
298
298
298
298
298
298
298
298
298
298
298
298
298
299.06211
294.80923
298.84468
296.80315
297.45083
297.35388
297.48369
297.33611
297.27588
297.26116
297.43397
297.68638
297.86356
297.96257
297.99339
298.00018
298.00033
298.00013
298.00001
298
298
298
298
298
298
298
298
298
298
298
298
298
298
298
298
298
298
298
298
298
298
298
298
298
298
298
298
298
298
298
298
298
298
298
298
298
298
298
298
298
298
298
298
298
298
298
298
298
298
298
298
298
298
298
298
298
298
298
298
298
298.93474
295.1917
298.74195
296.94159
297.5217
297.42948
297.54591
297.41858
297.36339
297.34831
297.50175
297.72351
297.87979
297.96698
297.99417
298.00015
298.00029
298.00011
298.00001
298
298
298
298
298
298
298
298
298
298
298
298
298
298
298
298
298
298
298
298
298
298
298
298
298
298
298
298
298
298
298
298
298
298
298
298
298
298
298
298
298
298
298
298
298
298
298
298
298
298
298
298
298
298
298
298
298
298
298
298
298
298.79539
295.60981
298.63063
297.09244
297.59655
297.51256
297.61349
297.50682
297.45788
297.44327
297.57544
297.76405
297.89754
297.97183
297.99503
298.00013
298.00025
298.0001
298.00001
298
298
298
298
298
298
298
298
298
298
298
298
298
298
298
298
298
298
298
298
298
298
298
298
298
298
298
298
298
298
298
298
298
298
298
298
298
298
298
298
298
298
298
298
298
298
298
298
298
298
298
298
298
298
298
298
298
298
298
298
298
298.64299
296.06526
298.51175
297.25797
297.67568
297.60379
297.68742
297.60077
297.56044
297.54708
297.65572
297.80842
297.917
297.97717
297.99598
298.0001
298.00021
298.00008
298.00001
298
298
298
298
298
298
298
298
298
298
298
298
298
298
298
298
298
298
298
298
298
298
298
298
298
298
298
298
298
298
298
298
298
298
298
298
298
298
298
298
298
298
298
298
298
298
298
298
298
298
298
298
298
298
298
298
298
298
298
298
298
298.48038
296.55619
298.38773
297.43933
297.76057
297.70331
297.7683
297.70191
297.67156
297.65998
297.74279
297.85694
297.93835
297.98309
297.99704
298.00008
298.00016
298.00006
298.00001
298
298
298
298
298
298
298
298
298
298
298
298
298
298
298
298
298
298
298
298
298
298
298
298
298
298
298
298
298
298
298
298
298
298
298
298
298
298
298
298
298
298
298
298
298
298
298
298
298
298
298
298
298
298
298
298
298
298
298
298
298
298.30359
297.08425
298.24999
297.64279
297.85005
297.81226
297.85522
297.81239
297.79304
297.78333
297.83673
297.90971
297.96166
297.9897
297.99826
298.00008
298.00011
298.00004
298
298
298
298
298
298
298
298
298
298
298
298
298
298
298
298
298
298
298
298
298
298
298
298
298
298
298
298
298
298
298
298
298
298
298
298
298
298
298
298
298
298
298
298
298
298
298
298
298
298
298
298
298
298
298
298
298
298
298
298
298
298
298.13744
297.61587
298.12149
297.85913
297.94703
297.93107
297.94688
297.93179
297.92527
297.92102
297.94034
297.96594
297.9856
297.99691
297.99993
298.00016
298.00006
298.00001
298
298
298
298
298
298
298
298
298
298
298
298
298
298
298
298
298
298
298
298
298
298
298
298
298
298
298
298
298
298
298
298
298
298
298
298
298
298
298
298
298
298
298
298
298
298
298
298
298
298
298
298
298
298
298
298
298
298
298
298
298
298
297.3213
297.66553
297.45739
297.5789
297.49055
297.5592
297.59397
297.6061
297.56292
297.58138
297.68127
297.8257
297.93611
297.98364
297.99622
297.99937
297.99997
298.00002
298
298
298
298
298
298
298
298
298
298
298
298
298
298
298
298
298
298
298
298
298
298
298
298
298
298
298
298
298
298
298
298
298
298
298
298
298
298
298
298
298
298
298
298
298
298
298
298
298
298
298
298
298
298
298
298
298
298
298
298
298
298
297.76425
297.74091
297.76028
297.75367
297.77627
297.78326
297.80222
297.82355
297.86667
297.91997
297.96424
297.98959
297.99736
297.99957
297.99988
297.99997
297.99999
298
298
298
298
298
298
298
298
298
298
298
298
298
298
298
298
298
298
298
298
298
298
298
298
298
298
298
298
298
298
298
298
298
298
298
298
298
298
298
298
298
298
298
298
298
298
298
298
298
298
298
298
298
298
298
298
298
298
298
298
298
298
298
297.98117
297.98224
297.98043
297.98225
297.98476
297.98682
297.98721
297.99037
297.99547
297.9998
298.00177
298.00144
298.00066
298.00017
298.00004
298.00001
298
298
298
298
298
298
298
298
298
298
298
298
298
298
298
298
298
298
298
298
298
298
298
298
298
298
298
298
298
298
298
298
298
298
298
298
298
298
298
298
298
298
298
298
298
298
298
298
298
298
298
298
298
298
298
298
298
298
298
298
298
298
298
298
297.99641
297.99633
297.99678
297.99729
297.998
297.99853
297.99961
298.00093
298.00182
298.0019
298.00133
298.00067
298.00023
298.00006
298.00002
298
298
298
298
298
298
298
298
298
298
298
298
298
298
298
298
298
298
298
298
298
298
298
298
298
298
298
298
298
298
298
298
298
298
298
298
298
298
298
298
298
298
298
298
298
298
298
298
298
298
298
298
298
298
298
298
298
298
298
298
298
298
298
298
298
298.00124
298.00123
298.0012
298.00116
298.00106
298.00095
298.00086
298.00075
298.00058
298.00035
298.00016
298.00005
298.00001
298
298
298
298
298
298
298
298
298
298
298
298
298
298
298
298
298
298
298
298
298
298
298
298
298
298
298
298
298
298
298
298
298
298
298
298
298
298
298
298
298
298
298
298
298
298
298
298
298
298
298
298
298
298
298
298
298
298
298
298
298
298
298
298
298
298
298
298.0001
298.0001
298.0001
298.0001
298.0001
298.0001
298.00009
298.00006
298.00003
298.00001
298
298
298
298
298
298
298
298
298
298
298
298
298
298
298
298
298
298
298
298
298
298
298
298
298
298
298
298
298
298
298
298
298
298
298
298
298
298
298
298
298
298
298
298
298
298
298
298
298
298
298
298
298
298
298
298
298
298
298
298
298
298
298
298
298
298
298
298
298
298
298.00002
298.00002
298.00001
298.00001
298.00001
298
298
298
298
298
298
298
298
298
298
298
298
298
298
298
298
298
298
298
298
298
298
298
298
298
298
298
298
298
298
298
298
298
298
298
298
298
298
298
298
298
298
298
298
298
298
298
298
298
298
298
298
298
298
298
298
298
298
298
298
298
298
298
298
298
298
298
298
298
298
298
298
298
298
298
298
298
298
298
298
298
298
298
298
298
298
298
298
298
298
298
298
298
298
298
298
298
298