/*--------------------------------*- C++ -*----------------------------------*\
| =========                 |                                                 |
| \\      /  F ield         | OpenFOAM: The Open Source CFD Toolbox           |
|  \\    /   O peration     | Version:  2406                                  |
|   \\  /    A nd           | Website:  www.openfoam.com                      |
|    \\/     M anipulation  |                                                 |
\*---------------------------------------------------------------------------*/
FoamFile
{
    version     2.0;
    format      ascii;
    arch        "LSB;label=32;scalar=64";
    class       volVectorField;
    location    "9e-05";
    object      U;
}
// * * * * * * * * * * * * * * * * * * * * * * * * * * * * * * * * * * * * * //

dimensions      [0 1 -1 0 0 0 0];

internalField   nonuniform List<vector> 
16000
(
(20.324366 -5.9416804e-21 -0.25290756)
(20.25162 2.6500143e-22 -0.078719696)
(20.285705 -6.2848836e-23 -0.035135346)
(20.241038 -1.1577977e-22 -0.21461372)
(20.228698 -4.5733394e-22 -0.016761822)
(20.190521 -7.0051188e-22 -0.14553639)
(20.175769 -2.2294505e-22 -0.046517729)
(20.140671 -6.0951919e-23 -0.11789931)
(20.115315 4.9606718e-22 -0.093041666)
(20.07217 2.9673596e-22 -0.12172891)
(20.041571 4.06368e-23 -0.084205269)
(20.01591 -6.964084e-22 -0.057198011)
(20.005102 -9.4912976e-22 -0.022129203)
(20.0008 -2.3240775e-23 -0.0071149726)
(20.000085 7.8478855e-23 -0.00043740148)
(19.999965 4.8009733e-24 0.00014410913)
(19.999991 -2.5375576e-24 0.00011417115)
(19.999997 4.4084577e-26 1.5954964e-05)
(20 -1.0122816e-25 9.2228269e-07)
(20 -4.7943481e-26 -9.0493452e-07)
(20 -5.6742932e-27 -1.4035157e-07)
(20 7.9680566e-28 -8.8091215e-09)
(20 9.0844955e-29 4.8121266e-09)
(20 -2.0812221e-29 6.8004695e-10)
(20 1.8116588e-30 1.2367565e-11)
(20 -7.5015245e-31 -1.6098434e-11)
(20 6.1568556e-32 -4.3245072e-12)
(20 -3.3688961e-33 -3.4248031e-12)
(20 3.1817929e-35 -5.2432432e-13)
(20 2.8122011e-34 1.0464669e-12)
(20 0 -2.951669e-13)
(20 -1.0038255e-32 1.7614182e-12)
(20 4.9152688e-33 -1.054271e-12)
(20 3.0039981e-33 -3.2130262e-13)
(20 2.0261908e-32 1.3081488e-12)
(20 2.7815344e-33 -1.4864175e-12)
(20 4.5502781e-33 2.4610616e-12)
(20 -2.9154145e-33 -4.2365109e-13)
(20 9.0199061e-34 -1.5859902e-12)
(20 -7.4536255e-33 2.4819529e-12)
(20 -8.8125801e-33 1.0290272e-12)
(20 -1.872638e-33 1.1892423e-12)
(20 9.7230805e-33 9.6833792e-13)
(20 3.8929737e-35 -7.8763305e-13)
(20 -4.0875083e-34 -5.8375977e-13)
(20 1.5357244e-33 -1.5593772e-13)
(20 -7.2915686e-33 2.5354544e-12)
(20 2.2545128e-33 -6.0495583e-12)
(20 -6.2525257e-33 -5.4220845e-12)
(20 2.7151151e-34 5.3299753e-12)
(20 -1.1444133e-33 5.2863377e-12)
(20 -1.3597266e-34 -1.434517e-12)
(20 3.2686693e-33 -3.0579168e-12)
(20 4.1414186e-33 -3.2647152e-12)
(20 -2.2028125e-33 -3.4669344e-12)
(20 -7.2409202e-34 8.7161842e-12)
(20 -1.9426499e-33 4.9918471e-12)
(20 -7.8658169e-33 -2.7495369e-12)
(20 4.5950892e-34 -2.4179283e-12)
(20 -8.388206e-33 -3.6401367e-12)
(20 2.7191048e-33 5.8365213e-14)
(20 -5.9344108e-33 4.5042383e-12)
(20 -2.0269564e-33 5.566448e-12)
(20 -4.8373801e-34 -4.0670767e-12)
(20 1.7883846e-34 -1.4096349e-12)
(20 -2.2353355e-33 1.8043777e-12)
(20 5.4411808e-33 -2.0459575e-12)
(20 -6.93113e-33 2.5105699e-12)
(20 7.5854465e-33 -2.0355553e-13)
(20 0 -3.7089074e-13)
(20 -1.6506178e-33 2.627628e-12)
(20 -1.4796421e-32 -5.1462371e-12)
(20 1.0098297e-33 -2.736676e-12)
(20 -5.3617385e-33 2.2782512e-12)
(20 -4.2007511e-33 3.9171425e-12)
(20 -1.7727097e-33 -1.2944197e-12)
(20 -4.5953219e-33 -5.5270405e-12)
(20 0 -8.3441778e-13)
(20 2.1735647e-33 2.0735701e-12)
(20 2.0749542e-32 6.1888454e-13)
(20.268713 -1.3936634e-21 -0.34120457)
(20.298861 -1.3427951e-21 -0.33472561)
(20.281654 -7.4435529e-22 -0.22023326)
(20.270689 -1.0806926e-21 -0.38694287)
(20.228126 5.0448018e-22 -0.24758953)
(20.206552 -1.6589514e-21 -0.35065456)
(20.176289 7.0420419e-25 -0.2492795)
(20.144236 -4.6698387e-23 -0.32485644)
(20.111995 9.0995288e-22 -0.31751794)
(20.066239 -4.3143734e-22 -0.36462628)
(20.035175 -3.6883864e-21 -0.27971038)
(20.011357 1.9958703e-21 -0.19166202)
(20.003089 6.0249337e-21 -0.083672642)
(20.000193 8.0209844e-22 -0.030053869)
(19.999937 -2.0504069e-22 -0.0059777266)
(19.99995 -6.2711625e-26 -0.00073480037)
(19.999994 -3.4476795e-25 0.00016411306)
(19.999999 -1.0586344e-24 6.7095287e-05)
(20.000001 -1.136539e-24 1.7951925e-05)
(20 4.9515185e-26 3.8547074e-07)
(20 -3.0809014e-27 -2.9971537e-07)
(20 -2.8790079e-27 -1.1484475e-07)
(20 0 -5.7386922e-09)
(20 -3.8960763e-30 1.0698356e-09)
(20 2.0103315e-29 4.2714746e-10)
(20 -1.0108102e-30 2.2174666e-11)
(20 4.4661283e-32 -4.206741e-12)
(20 1.4066861e-32 -1.2833401e-12)
(20 2.3332655e-34 5.8643741e-13)
(20 2.1417251e-33 -1.473483e-12)
(20 -2.2636581e-33 6.7087664e-13)
(20 5.9963195e-34 -6.1349379e-13)
(20 4.185722e-34 -2.9281422e-12)
(20 -5.69825e-34 -2.0067839e-13)
(20 -3.02616e-33 -4.066438e-13)
(20 -7.1813285e-36 4.3985277e-12)
(20 1.91344e-33 4.2802707e-12)
(20 7.7411521e-33 -2.4344295e-12)
(20 4.4166591e-33 2.2157172e-12)
(20 1.0014728e-33 1.5272756e-12)
(20 1.1071252e-33 -2.4608928e-13)
(20 -4.2991952e-34 -1.9290922e-12)
(20 -1.0868242e-33 -2.2069333e-12)
(20 1.0552003e-32 1.7271417e-12)
(20 -9.6967566e-34 -2.1554287e-12)
(20 7.2471648e-33 -4.218623e-12)
(20 6.0609312e-33 1.2222073e-12)
(20 4.1355541e-36 -2.7836673e-13)
(20 3.409344e-34 2.9504857e-12)
(20 -4.9799119e-34 7.5165057e-13)
(20 2.219134e-33 -3.3107956e-12)
(20 1.2357329e-33 -1.5486139e-12)
(20 -4.576948e-33 -6.2780213e-13)
(20 7.8001524e-34 6.7983854e-12)
(20 -9.3410135e-34 1.4660391e-12)
(20 4.6061032e-33 3.9309893e-12)
(20 3.6701692e-33 6.6459134e-12)
(20 0 -5.7396264e-12)
(20 -9.6883288e-33 -1.1332438e-11)
(20 6.8337589e-35 -3.7547122e-12)
(20 -4.5276127e-33 5.9453377e-12)
(20 9.0613838e-34 2.867505e-12)
(20 -2.2648777e-33 -3.82418e-12)
(20 -2.4102315e-33 -5.8278989e-13)
(20 -4.951696e-35 5.6105929e-13)
(20 1.4315176e-33 1.735355e-12)
(20 -1.9090887e-33 5.1279024e-12)
(20 7.3768312e-33 2.7856859e-12)
(20 -3.1819949e-33 -3.4404039e-12)
(20 1.0145552e-32 -4.3529768e-12)
(20 -5.2709432e-33 5.9586057e-12)
(20 1.5955411e-35 3.9909463e-12)
(20 1.6688323e-33 -5.0135527e-12)
(20 1.5082601e-34 -3.387384e-12)
(20 6.2884983e-34 2.2119917e-12)
(20 1.8943738e-34 -4.3978903e-13)
(20 -5.9461445e-33 2.0787744e-13)
(20 2.9261765e-33 -6.4688769e-14)
(20 -2.5513196e-34 -3.7036466e-12)
(20 -2.1037699e-33 1.3708346e-12)
(20.189501 1.5828923e-21 -0.44763419)
(20.329081 3.1002976e-22 -0.67061825)
(20.285289 9.664768e-22 -0.41236824)
(20.285299 -2.0189624e-21 -0.60506759)
(20.228189 7.3890425e-23 -0.50315091)
(20.214501 1.0672554e-21 -0.54204843)
(20.174373 3.5349441e-22 -0.48538369)
(20.145961 1.5504507e-21 -0.51859938)
(20.107308 0 -0.55973063)
(20.05696 3.2190333e-23 -0.61835429)
(20.025516 -5.9034972e-23 -0.4968012)
(20.002848 3.5532633e-21 -0.35064228)
(19.998292 -2.2950714e-21 -0.16485326)
(19.997899 -2.8090605e-21 -0.063690179)
(19.999276 8.1151195e-22 -0.014954146)
(19.999823 1.0606719e-22 -0.0023304614)
(19.999992 -6.7791265e-24 0.00013552495)
(20.000005 -1.5350529e-24 0.00012789349)
(20.000003 9.2167856e-25 4.3038938e-05)
(20 1.8715191e-25 3.4714639e-06)
(20 -8.9932478e-27 -2.9180567e-07)
(20 -3.4309761e-29 -2.338419e-07)
(20 -4.3358029e-30 -2.8860306e-08)
(20 7.0698556e-29 -1.1598305e-10)
(20 -1.4342108e-29 8.1930062e-10)
(20 4.2227101e-32 1.0497787e-10)
(20 1.6375109e-33 1.5577732e-12)
(20 -5.5553408e-34 -1.5461671e-12)
(20 -4.5827709e-33 -1.7600924e-12)
(20 1.2236709e-32 4.8781248e-13)
(20 -2.9021728e-33 -1.0008773e-12)
(20 3.1387207e-33 1.3789806e-12)
(20 5.8711224e-35 1.1323928e-12)
(20 -7.3302718e-34 1.249532e-12)
(20 6.5757865e-33 2.162975e-12)
(20 -7.9522942e-34 -2.179034e-12)
(20 8.8944984e-33 -4.310177e-12)
(20 -1.1838994e-32 -2.4519728e-12)
(20 2.2444263e-33 2.2733934e-12)
(20 -3.3694e-33 2.0397993e-13)
(20 4.6311868e-33 1.9945133e-12)
(20 -1.771208e-34 2.689431e-12)
(20 7.1420523e-34 -4.5172824e-12)
(20 -4.1579621e-34 -1.0202425e-12)
(20 -6.9653575e-35 -2.2002056e-12)
(20 1.2514535e-33 -3.7240399e-12)
(20 -6.0612338e-33 9.6503641e-12)
(20 -4.0312494e-33 9.0902992e-12)
(20 -3.281294e-33 5.0415746e-13)
(20 4.5310391e-34 -2.4971135e-12)
(20 -2.2527314e-34 -4.2830316e-12)
(20 3.1742971e-35 -2.6987033e-12)
(20 -2.514253e-33 -1.2540209e-12)
(20 1.6232815e-33 1.5637822e-12)
(20 -2.3699512e-33 -4.1884057e-12)
(20 1.9081488e-33 1.3607047e-12)
(20 1.9382901e-33 1.1601475e-11)
(20 -9.9082741e-34 -2.0943432e-12)
(20 1.703982e-33 -9.1267707e-12)
(20 9.3644487e-35 -2.9061527e-12)
(20 3.2704266e-33 4.4860464e-13)
(20 2.3792271e-33 1.6342657e-12)
(20 3.9909946e-33 -4.3407853e-13)
(20 -2.3501871e-33 -1.1222438e-13)
(20 1.3139053e-33 5.5143372e-13)
(20 1.4065714e-33 4.5615528e-12)
(20 9.651068e-34 2.917615e-12)
(20 -1.3626861e-32 -3.5357948e-12)
(20 1.2162054e-32 1.1034716e-12)
(20 2.0577813e-34 -1.8195119e-12)
(20 1.4222717e-33 -2.080175e-12)
(20 -2.550312e-33 3.3587807e-12)
(20 7.6310056e-35 1.7841057e-12)
(20 8.2979071e-35 -1.6094311e-12)
(20 2.1279603e-33 -1.986863e-13)
(20 -8.7113665e-35 2.8601665e-13)
(20 1.1783009e-32 -1.3755182e-12)
(20 8.9518946e-35 -1.1294556e-12)
(20 1.746051e-33 5.7642904e-13)
(20 3.0275055e-33 -2.3745535e-14)
(20.09698 7.6127512e-22 -0.5137392)
(20.341863 4.2618377e-22 -0.99720312)
(20.281288 9.2681044e-23 -0.65403324)
(20.290217 -3.3252577e-22 -0.80716218)
(20.230313 -1.1154529e-22 -0.76247313)
(20.213045 7.4972591e-23 -0.76403685)
(20.169745 -1.2190275e-21 -0.72068556)
(20.1439 2.2892442e-22 -0.70433984)
(20.098693 -1.8722637e-22 -0.80766284)
(20.041837 -6.2836067e-23 -0.88121746)
(20.009925 4.1915867e-21 -0.73739307)
(19.988608 -4.6385449e-22 -0.5372021)
(19.99008 4.0923592e-21 -0.26507599)
(19.994049 -4.2575527e-24 -0.10730104)
(19.99816 -3.351241e-24 -0.02710051)
(19.999598 6.3000075e-25 -0.0046837081)
(19.999987 1.4757555e-23 6.8390744e-05)
(20.000013 -1.9049757e-25 0.00020157309)
(20.000007 1.4088394e-25 7.5459693e-05)
(20.000001 -2.8677832e-26 7.6857855e-06)
(20 2.3655414e-26 -2.3403401e-07)
(20 -8.5995994e-29 -3.8454378e-07)
(20 -1.6793229e-27 -5.7177389e-08)
(20 -1.6923231e-28 -1.610064e-09)
(20 -1.8838472e-29 1.3026907e-09)
(20 9.9571965e-30 1.9572959e-10)
(20 1.2279607e-31 3.2404648e-12)
(20 5.1344972e-32 -2.2959501e-12)
(20 -1.8401608e-32 -1.7807492e-12)
(20 -3.108465e-34 2.9155128e-12)
(20 7.0069738e-33 2.5856967e-12)
(20 -1.5858387e-33 9.6349819e-13)
(20 -2.3426928e-33 6.1543466e-13)
(20 6.0243789e-33 1.761521e-12)
(20 -3.0570051e-33 1.2504113e-12)
(20 1.8635004e-32 -4.1509599e-12)
(20 3.2093526e-34 -3.5416594e-12)
(20 -6.3882635e-33 1.1788085e-12)
(20 -1.3983171e-32 -8.4601975e-13)
(20 -4.5869099e-33 -1.4971821e-12)
(20 -5.8099667e-33 -5.7665553e-13)
(20 -2.7422801e-34 2.0017753e-12)
(20 1.9884709e-33 1.4836933e-12)
(20 -1.7776532e-34 -4.4683725e-12)
(20 8.4862882e-33 -2.4850787e-12)
(20 5.7821744e-33 5.0703953e-12)
(20 -1.8297419e-34 8.2837073e-12)
(20 1.533514e-33 5.8742555e-12)
(20 -2.32002e-33 -3.6676961e-12)
(20 -2.1514494e-33 -9.2823117e-12)
(20 1.6210464e-33 -3.2914567e-12)
(20 2.8911301e-33 3.4783545e-12)
(20 -1.7114007e-36 9.1814628e-13)
(20 1.0090178e-33 1.0082462e-12)
(20 5.1159032e-33 -1.6928334e-12)
(20 -3.5333764e-33 1.4492211e-12)
(20 -1.890232e-33 8.5051976e-12)
(20 -7.8859101e-34 8.9167887e-13)
(20 -8.5071364e-34 5.8515914e-13)
(20 4.1467147e-33 -2.9794197e-12)
(20 4.0939595e-33 -3.4549863e-12)
(20 2.8560503e-33 8.6462663e-13)
(20 4.9878573e-33 -6.885033e-13)
(20 2.1973544e-33 -3.0378843e-12)
(20 9.2359105e-34 6.0024455e-13)
(20 3.1819214e-33 4.5430839e-12)
(20 4.2596428e-35 -3.5396109e-12)
(20 4.473704e-33 -4.7862341e-12)
(20 8.9544593e-33 6.9565838e-12)
(20 1.7043821e-33 5.1070023e-12)
(20 -1.1280337e-34 -1.1083842e-12)
(20 -1.2555829e-34 -1.1074226e-12)
(20 -1.4652069e-34 -5.8779323e-13)
(20 2.2195164e-33 -2.196192e-12)
(20 5.0383305e-35 -4.3693212e-12)
(20 2.868498e-33 2.5037708e-12)
(20 -1.99974e-33 4.5560186e-12)
(20 -8.0693112e-33 -2.0080939e-12)
(20 3.3380464e-33 -2.8492573e-12)
(20 -1.7705811e-34 5.948826e-13)
(19.951963 3.4602034e-23 -0.62631913)
(20.350297 5.6126358e-21 -1.3438435)
(20.274081 0 -0.84644354)
(20.296573 3.2362232e-23 -1.0067315)
(20.228719 4.1042513e-21 -1.0235555)
(20.205288 2.2904424e-21 -1.0194886)
(20.163671 -2.7252292e-21 -0.95631597)
(20.139215 5.8168063e-22 -0.88756427)
(20.087291 -6.7308755e-21 -1.0650232)
(20.020435 7.1157616e-24 -1.152125)
(19.988062 -4.0996893e-21 -0.9952003)
(19.968505 -1.2893605e-20 -0.74822516)
(19.978092 -4.2457577e-22 -0.38464659)
(19.988295 5.9164002e-21 -0.16234066)
(19.996403 -9.151231e-22 -0.043437624)
(19.999225 2.079925e-22 -0.008140751)
(19.999968 3.5668441e-23 -0.00012343604)
(20.000024 4.409255e-24 0.00028496746)
(20.000012 2.2297028e-24 0.00011774171)
(20.000002 -4.5374296e-25 1.4277208e-05)
(20 -1.3901484e-25 3.2143532e-08)
(20 -7.4424211e-27 -5.7937273e-07)
(20 -5.6529063e-27 -9.8596158e-08)
(20 -5.7908401e-28 -4.5576577e-09)
(20 4.2527232e-30 1.9324052e-09)
(20 -9.5433935e-30 3.3354989e-10)
(20 1.7401797e-30 1.1438959e-11)
(20 -5.7788895e-33 -2.5723053e-12)
(20 3.0694021e-32 7.180109e-13)
(20 5.2923023e-33 -1.1309321e-12)
(20 -6.2520784e-34 3.1213892e-12)
(20 5.8146678e-33 1.6153809e-12)
(20 -1.7733213e-33 -1.8000142e-13)
(20 -1.1065922e-35 -7.6709899e-13)
(20 1.5023339e-34 7.6417795e-14)
(20 6.0269719e-35 -3.536644e-12)
(20 1.2880098e-34 -3.1239929e-12)
(20 4.4397359e-33 4.0912288e-12)
(20 9.0180749e-34 -1.3495221e-12)
(20 4.3385713e-34 1.3113908e-12)
(20 -7.3944305e-35 -3.4746702e-13)
(20 -3.6765941e-33 -3.1330457e-12)
(20 -1.3344655e-33 5.5771123e-13)
(20 -4.9876178e-33 -1.5341223e-12)
(20 -6.3374014e-34 4.4403365e-12)
(20 8.7256261e-33 5.2948355e-12)
(20 8.637194e-33 3.5563214e-12)
(20 -2.4346916e-33 1.9511725e-12)
(20 5.1991447e-33 -7.7166367e-12)
(20 1.382155e-33 -5.3677605e-12)
(20 4.2536403e-33 -2.8812766e-12)
(20 -2.1028786e-33 -4.8019851e-13)
(20 1.6400076e-33 2.3744405e-12)
(20 9.5787553e-34 -1.8404333e-12)
(20 -1.6541831e-33 -1.1201905e-12)
(20 5.9533055e-34 2.9171693e-13)
(20 -3.0166111e-33 6.5674017e-12)
(20 4.1844306e-33 1.4848545e-12)
(20 1.2008518e-33 -3.4009945e-14)
(20 4.1267795e-33 5.3879604e-12)
(20 4.3443448e-33 -3.1499617e-12)
(20 5.0016313e-33 -6.3317341e-12)
(20 -2.1111525e-33 2.4058302e-13)
(20 1.3551464e-33 4.0462216e-13)
(20 3.1475404e-34 1.4622385e-12)
(20 -2.62327e-33 2.9134379e-12)
(20 -2.9551319e-33 -1.8311753e-12)
(20 -8.959844e-34 -2.7671964e-12)
(20 7.8473407e-34 1.5210706e-12)
(20 3.2853541e-33 2.4353784e-12)
(20 3.5616788e-33 -1.2975258e-12)
(20 -2.3278873e-34 8.6985303e-13)
(20 -1.3411653e-33 2.6503816e-12)
(20 -3.0652422e-33 -9.8551958e-13)
(20 4.3157287e-34 5.6216205e-13)
(20 9.4306608e-33 -2.3648532e-12)
(20 1.0751114e-32 -9.9517235e-13)
(20 -1.1358549e-34 2.2340228e-12)
(20 1.1942469e-33 -1.7576525e-12)
(20 1.7676547e-34 2.5131515e-13)
(19.801637 -7.1520412e-23 -0.70801352)
(20.369471 -5.9140287e-21 -1.6926471)
(20.258737 1.5583557e-21 -1.0590598)
(20.308464 -8.1036444e-23 -1.1850225)
(20.220391 -2.7267517e-23 -1.3148924)
(20.193444 7.0131895e-23 -1.2896878)
(20.15617 3.1915998e-23 -1.1839264)
(20.131962 3.8960217e-21 -1.0744583)
(20.070821 3.1378996e-21 -1.3271783)
(19.993783 -2.9381909e-21 -1.4417596)
(19.95945 9.3559875e-21 -1.2687052)
(19.94137 -6.5836403e-21 -0.98365573)
(19.961283 -1.3598863e-20 -0.52446399)
(19.979965 1.1133011e-20 -0.22978155)
(19.993737 1.7766535e-21 -0.064627121)
(19.99862 -1.5656697e-21 -0.012968663)
(19.999925 -8.7698325e-24 -0.00050288174)
(20.000037 -4.7861437e-24 0.0003723283)
(20.00002 -2.4135922e-25 0.00017080124)
(20.000003 8.3132627e-25 2.4084318e-05)
(20 1.6411501e-28 6.3948275e-07)
(20 5.5356006e-29 -8.1495351e-07)
(20 -1.9990588e-29 -1.5640649e-07)
(20 -1.5634336e-31 -9.8534856e-09)
(20 -2.3195264e-29 2.6627132e-09)
(20 -1.2730593e-29 5.2943991e-10)
(20 -4.1352514e-33 2.8437158e-11)
(20 -1.1603986e-31 -6.4014202e-12)
(20 -3.530164e-32 -3.3137617e-13)
(20 4.9380077e-33 -6.714592e-13)
(20 8.5225256e-36 1.4482795e-12)
(20 2.5705915e-36 -6.8080405e-13)
(20 3.361982e-33 2.0678672e-12)
(20 -3.184682e-34 7.4749246e-14)
(20 6.0235359e-34 6.1246673e-13)
(20 -4.5838306e-34 2.1328397e-12)
(20 -1.7198346e-34 -5.1247671e-12)
(20 -7.9731668e-33 -2.5053276e-12)
(20 -3.1950585e-33 1.625789e-12)
(20 1.8854675e-33 1.3219575e-12)
(20 -4.6772263e-33 2.0640498e-12)
(20 8.5220939e-33 3.2694293e-12)
(20 -1.0565998e-33 -4.7090399e-13)
(20 6.6806463e-34 -2.0022659e-12)
(20 2.9728947e-33 2.0493584e-12)
(20 1.9457793e-34 -1.361934e-12)
(20 2.4258103e-33 -1.7030585e-13)
(20 6.6680863e-33 2.189398e-13)
(20 -5.2672417e-33 -5.6532379e-12)
(20 6.3397215e-33 -2.8102419e-12)
(20 2.2626892e-34 -3.8807457e-13)
(20 1.2972935e-32 5.2101381e-12)
(20 -1.7007453e-33 2.0184215e-12)
(20 -4.4184965e-34 -5.7265884e-12)
(20 -2.524189e-33 2.9427351e-12)
(20 -3.9333417e-33 3.6127127e-12)
(20 2.5948831e-33 -1.4403589e-12)
(20 -4.5277783e-33 -4.0192252e-12)
(20 -5.937292e-34 2.5433866e-12)
(20 8.5101277e-33 9.0591168e-12)
(20 3.5193109e-33 2.108008e-12)
(20 -2.9898515e-33 -5.6320891e-12)
(20 1.0067521e-32 -5.017244e-12)
(20 -8.3413941e-35 -1.0573703e-12)
(20 9.4065851e-34 1.7662516e-12)
(20 2.1038535e-33 1.7366599e-13)
(20 -1.3819085e-33 -2.2332541e-12)
(20 -2.681485e-33 2.2305309e-12)
(20 7.423845e-35 1.342433e-12)
(20 1.2595533e-33 2.6990116e-14)
(20 8.6825017e-34 -2.1578019e-12)
(20 1.3658229e-33 2.1785266e-12)
(20 -8.7405604e-34 3.1299467e-12)
(20 1.5924331e-33 -4.1003385e-12)
(20 1.6691709e-35 2.1996484e-13)
(20 -6.3348523e-33 -7.9940536e-14)
(20 -9.9734618e-34 1.2372423e-12)
(20 3.2862227e-34 2.4238274e-12)
(20 -2.9370539e-33 -3.6634994e-12)
(20 4.6550059e-34 -1.7311814e-13)
(19.646541 2.3795602e-21 -0.77625544)
(20.389592 -7.3730793e-21 -2.0771931)
(20.236234 -2.5551049e-21 -1.283022)
(20.324895 -6.1979909e-21 -1.3582287)
(20.203265 -6.9585121e-21 -1.631512)
(20.181823 -3.0977006e-22 -1.5614425)
(20.143014 -8.7825635e-23 -1.4256137)
(20.120754 -3.4972538e-23 -1.2748963)
(20.046223 -3.4100907e-21 -1.5927211)
(19.962176 -4.8530114e-21 -1.7394646)
(19.922617 5.1429475e-22 -1.561672)
(19.905931 -7.6327862e-22 -1.2429007)
(19.938607 -6.7348315e-21 -0.68468879)
(19.968359 -8.9919229e-22 -0.31035787)
(19.989865 3.5855893e-22 -0.091229302)
(19.997693 -6.1244192e-22 -0.019406774)
(19.999841 6.5845568e-24 -0.0011297823)
(20.000052 -1.228032e-25 0.00045669482)
(20.00003 -6.9656648e-25 0.00023510617)
(20.000005 2.3672273e-24 3.7756622e-05)
(20 -1.2272593e-25 1.7158539e-06)
(20 1.2715928e-26 -1.0859129e-06)
(20 -2.1044204e-29 -2.3277872e-07)
(20 7.7415424e-28 -1.8334389e-08)
(20 4.2115063e-29 3.4436431e-09)
(20 5.1280068e-29 7.8368117e-10)
(20 -2.1967914e-30 5.2870156e-11)
(20 1.5074079e-31 -9.5721266e-12)
(20 -7.390223e-32 8.4534692e-14)
(20 -3.8145624e-33 2.0337466e-12)
(20 -1.2041948e-33 -1.0764306e-12)
(20 1.9257559e-33 5.7567725e-13)
(20 1.9714294e-33 6.0025613e-13)
(20 -1.7180513e-33 -1.424412e-12)
(20 -2.181008e-34 -1.3738144e-13)
(20 5.2710706e-34 2.9613619e-12)
(20 3.295907e-33 -5.0783272e-13)
(20 6.5808753e-33 9.2799948e-13)
(20 2.2775622e-33 3.9762961e-12)
(20 -1.8197637e-33 1.0615074e-12)
(20 -1.3894289e-33 1.2662043e-12)
(20 0 8.8982141e-13)
(20 8.3039379e-34 -2.9074113e-12)
(20 -1.2144238e-33 -8.7256501e-13)
(20 -8.6187743e-35 4.730706e-12)
(20 -3.9205557e-34 -4.4621712e-12)
(20 -2.8387055e-33 -3.8749253e-12)
(20 3.6489274e-33 1.2140353e-12)
(20 9.9055108e-33 -9.9189806e-13)
(20 -1.9795628e-33 1.7233409e-12)
(20 6.0985406e-33 -2.5685142e-12)
(20 -2.8787512e-33 2.8039461e-12)
(20 3.355444e-33 6.7651952e-12)
(20 -8.7110844e-34 -1.3439807e-12)
(20 2.1462557e-33 -5.3748634e-12)
(20 6.0839584e-34 -9.0525472e-12)
(20 -3.0456411e-33 -1.3651681e-12)
(20 1.3187595e-33 6.1586105e-12)
(20 -4.3408193e-34 -1.6663594e-13)
(20 -3.2618737e-33 -1.0095351e-12)
(20 -9.7448305e-33 9.1901875e-12)
(20 -5.691993e-34 7.0297061e-12)
(20 -1.3275685e-33 -3.3902486e-12)
(20 -5.251885e-33 -4.992754e-12)
(20 2.5609118e-33 -1.6498523e-12)
(20 -1.2093764e-33 1.6742184e-12)
(20 -2.6557936e-34 -2.6740249e-12)
(20 1.860758e-33 -8.6958072e-13)
(20 -1.196718e-33 1.8439218e-12)
(20 1.7408943e-33 1.1251707e-12)
(20 2.4737572e-34 -2.3921481e-13)
(20 -6.3748996e-33 6.2488075e-13)
(20 1.772787e-33 -1.0519469e-12)
(20 -1.0018842e-33 -1.695886e-12)
(20 5.11627e-33 1.1447959e-12)
(20 7.1101959e-34 -1.0778031e-12)
(20 -8.3994748e-33 7.223102e-13)
(20 4.8350549e-34 3.2547274e-13)
(20 2.387446e-34 1.6787337e-12)
(20 1.03269e-34 -1.0568108e-12)
(19.502287 8.719871e-21 -0.82095139)
(20.411115 -1.4176511e-21 -2.4987574)
(20.204443 -1.1668922e-21 -1.5247187)
(20.345206 1.1832514e-20 -1.5287515)
(20.177527 -4.2237625e-21 -1.9694855)
(20.167689 -3.5929928e-21 -1.8294931)
(20.122284 7.8295758e-21 -1.6980922)
(20.103647 1.1715639e-21 -1.4951429)
(20.017433 4.7334699e-21 -1.8543228)
(19.924063 3.3311836e-21 -2.0374546)
(19.875508 4.4211071e-21 -1.8791299)
(19.860676 1.0741548e-20 -1.52583)
(19.908883 -7.7341953e-22 -0.86581157)
(19.952718 -5.140187e-21 -0.40457016)
(19.984454 -2.7346561e-21 -0.12368981)
(19.996335 1.4315777e-21 -0.02766975)
(19.999698 9.8768151e-24 -0.0020656557)
(20.000069 -2.4216192e-24 0.00052927534)
(20.000045 -8.8372162e-24 0.00031087701)
(20.000008 -1.721107e-24 5.5852643e-05)
(20 5.6754924e-25 3.4000713e-06)
(20 -2.0573154e-27 -1.3830877e-06)
(20 7.7115186e-27 -3.2945813e-07)
(20 -1.2375701e-27 -3.0807019e-08)
(20 -4.6549079e-31 4.2141304e-09)
(20 -2.01603e-29 1.1104884e-09)
(20 -3.5265466e-30 9.1774508e-11)
(20 -8.3013109e-32 -1.0130696e-11)
(20 -3.8057516e-32 3.5622251e-13)
(20 6.7906708e-33 1.9116907e-12)
(20 -5.2583497e-33 -2.0313964e-12)
(20 -1.1332656e-34 -2.2559688e-12)
(20 -2.3717586e-33 7.6215348e-13)
(20 1.5845569e-33 2.4994549e-12)
(20 -9.0091974e-34 -1.2120226e-12)
(20 9.6263915e-33 -1.4359571e-12)
(20 -1.3259186e-33 -1.7148779e-12)
(20 -6.8048005e-33 -1.9668534e-13)
(20 -3.3248921e-33 4.1311219e-13)
(20 2.5940374e-35 -9.5939906e-13)
(20 -6.7659736e-33 8.6814978e-13)
(20 9.7674296e-34 6.3800729e-13)
(20 -2.4602726e-34 4.716341e-13)
(20 -4.1193583e-34 3.6299148e-12)
(20 2.971047e-34 3.7398945e-12)
(20 6.5331838e-34 -4.5958281e-12)
(20 1.7081487e-33 -3.5021168e-12)
(20 -1.7448862e-33 6.1066678e-12)
(20 9.7198672e-33 1.3370592e-12)
(20 3.086755e-33 -6.9292363e-12)
(20 2.8773983e-33 -6.5167459e-12)
(20 1.9926665e-33 -1.9400638e-12)
(20 -5.1582916e-33 3.8889095e-12)
(20 5.4828046e-34 2.4509382e-12)
(20 -3.1198643e-33 -1.5312466e-12)
(20 2.1313272e-33 -4.0364102e-12)
(20 -6.5554394e-33 -1.7576839e-12)
(20 -3.1748714e-33 2.5765445e-12)
(20 3.3108234e-34 6.5438744e-13)
(20 2.5365909e-33 -3.723484e-12)
(20 5.8381286e-35 1.3056991e-12)
(20 -7.714272e-33 3.3960565e-12)
(20 1.2642597e-33 -3.8396424e-12)
(20 9.0978908e-33 4.2144981e-12)
(20 1.2247131e-33 3.0210191e-12)
(20 1.5551945e-33 -2.0721385e-12)
(20 3.8776412e-34 1.7294781e-12)
(20 -9.7921545e-34 3.654191e-12)
(20 6.8389603e-33 -3.2001799e-12)
(20 -1.0607821e-33 2.4644105e-12)
(20 -2.0506444e-34 4.6716711e-12)
(20 4.996876e-34 -2.1619169e-12)
(20 -7.615662e-34 -1.6122559e-12)
(20 5.4461633e-33 -1.9671025e-12)
(20 -7.1712121e-34 1.4886357e-13)
(20 -1.5165343e-34 7.4226867e-13)
(20 6.15539e-33 -1.1495716e-12)
(20 -2.3113207e-33 -7.6657998e-13)
(20 2.2872308e-34 1.2544216e-12)
(20 -4.0357222e-33 -1.6757111e-13)
(19.386778 -6.376771e-21 -0.83931285)
(20.433152 8.5177608e-21 -2.9654707)
(20.161922 6.4905009e-22 -1.7874423)
(20.371339 5.0740529e-22 -1.6979989)
(20.141543 4.1573006e-22 -2.3411393)
(20.15049 -5.9507239e-21 -2.0923497)
(20.092959 1.6297934e-20 -2.0014903)
(20.081378 -2.1757171e-22 -1.7312607)
(19.984904 1.1181255e-20 -2.1116617)
(19.87706 4.7202933e-22 -2.3430058)
(19.817554 4.8084492e-22 -2.222483)
(19.804426 -9.804515e-22 -1.8302314)
(19.870871 9.1661554e-22 -1.067717)
(19.932167 -7.2979653e-21 -0.51295209)
(19.977108 -2.8400543e-21 -0.16246276)
(19.994413 -9.5396654e-22 -0.037972749)
(19.999469 2.8593e-22 -0.0033746193)
(20.000085 6.941158e-24 0.00058017524)
(20.000064 4.6804629e-25 0.000398212)
(20.000013 -2.0668865e-24 7.8857995e-05)
(20.000001 2.6064459e-25 5.8400194e-06)
(20 -1.2205753e-26 -1.6938892e-06)
(20 8.1995206e-27 -4.4790442e-07)
(20 1.7228282e-27 -4.8072098e-08)
(20 -4.5474102e-30 4.8926662e-09)
(20 -2.2707029e-29 1.5072634e-09)
(20 -8.2441907e-31 1.4329195e-10)
(20 -2.5367761e-32 -1.2671527e-11)
(20 -1.2968051e-33 -3.134121e-12)
(20 0 -1.2046876e-13)
(20 -2.2551563e-33 -3.0368833e-13)
(20 -1.1776327e-34 1.7306805e-12)
(20 1.408635e-33 1.4098725e-12)
(20 4.42394e-34 -6.6178254e-13)
(20 3.1124035e-34 4.5377502e-14)
(20 -1.8727243e-33 -8.6775932e-14)
(20 -6.4856995e-33 2.2636122e-12)
(20 -9.4940954e-35 -3.0204624e-12)
(20 4.9525007e-34 -1.9115874e-12)
(20 -8.1435065e-33 -8.5015157e-13)
(20 2.7841326e-33 -4.4295242e-12)
(20 -3.8506813e-33 1.0606519e-12)
(20 7.5203294e-34 3.5482085e-12)
(20 2.5759881e-35 2.5025179e-12)
(20 -8.9783163e-34 1.5902497e-12)
(20 8.4064472e-33 3.8919225e-12)
(20 -1.8046284e-32 -9.8970658e-13)
(20 -2.8022657e-33 1.4781069e-12)
(20 -1.7030546e-32 1.9510165e-12)
(20 8.9996339e-34 -7.4286585e-12)
(20 5.2847254e-33 -2.0272582e-12)
(20 -3.842826e-33 1.234003e-12)
(20 5.9732705e-33 -3.8649585e-12)
(20 -6.554824e-33 7.8116232e-13)
(20 -3.2031813e-33 3.7497749e-12)
(20 -1.3504918e-32 3.4171656e-12)
(20 -7.7287299e-34 -8.7515197e-13)
(20 -1.3711667e-32 -7.2215186e-12)
(20 -8.2385145e-33 -5.4697906e-12)
(20 2.9035674e-33 -4.594938e-12)
(20 1.3974111e-33 -1.4480461e-12)
(20 -1.2427153e-33 4.8556508e-12)
(20 5.3844308e-33 1.3801426e-13)
(20 -4.1765702e-33 -3.0724449e-12)
(20 4.8596786e-33 -3.9155788e-13)
(20 -6.3257572e-33 2.7590163e-13)
(20 5.3930477e-34 -1.1998039e-12)
(20 9.6986606e-34 1.6793907e-12)
(20 -4.3071088e-34 -7.5070268e-13)
(20 -3.7293504e-34 1.7520007e-12)
(20 -5.8898012e-33 5.5758091e-12)
(20 -4.9471422e-33 -4.7569062e-13)
(20 3.0706568e-34 2.0420961e-12)
(20 7.3572626e-33 -2.1798791e-13)
(20 2.5254089e-33 6.501331e-13)
(20 -1.633267e-33 2.1594394e-12)
(20 1.903781e-33 -4.8151021e-12)
(20 0 -2.641977e-12)
(20 9.0206459e-33 1.821239e-12)
(20 0 4.430569e-13)
(19.321216 8.7105546e-21 -0.8259821)
(20.457056 -7.3386592e-22 -3.4835341)
(20.104688 -1.3721188e-22 -2.0723795)
(20.404905 4.7526632e-21 -1.8706073)
(20.092125 -5.3101653e-21 -2.7546027)
(20.132928 -5.4157657e-21 -2.3446612)
(20.053457 6.3227499e-22 -2.3412327)
(20.054869 -1.2629302e-21 -1.9839609)
(19.947493 -8.6247101e-25 -2.3692105)
(19.819963 7.6569748e-23 -2.653409)
(19.746351 1.4966088e-20 -2.5926107)
(19.735129 1.3152609e-20 -2.1589816)
(19.823036 -2.3796446e-20 -1.2912558)
(19.905669 -7.7861503e-21 -0.63612251)
(19.967344 -3.1610425e-22 -0.20802713)
(19.991765 2.2689292e-21 -0.050541103)
(19.999121 1.7380803e-23 -0.0051236338)
(20.000098 -1.1875388e-23 0.00059860968)
(20.000088 5.9278445e-24 0.00049715113)
(20.000019 2.5376835e-24 0.00010717771)
(20.000002 -1.0679509e-24 9.1920538e-06)
(20 2.1278162e-27 -2.0024454e-06)
(20 -2.2354289e-26 -5.8937856e-07)
(20 -1.9252278e-27 -7.0935304e-08)
(20 2.4198571e-29 5.3901972e-09)
(20 -9.9351784e-29 1.9761528e-09)
(20 1.2420269e-29 2.150054e-10)
(20 1.3241533e-32 -1.6206722e-11)
(20 7.6509846e-32 -2.9981369e-12)
(20 -1.2724951e-32 1.4869032e-12)
(20 -2.7510844e-34 -1.9063375e-12)
(20 4.3303292e-34 -1.6452618e-13)
(20 7.0037203e-34 3.7978795e-13)
(20 -3.7498368e-33 -1.6591128e-12)
(20 2.2250291e-33 2.2180099e-13)
(20 4.5999915e-33 2.0068969e-12)
(20 -2.4119529e-33 8.8920219e-13)
(20 7.5338133e-33 8.3957106e-14)
(20 1.4963454e-33 -3.7229573e-12)
(20 4.5778476e-33 -4.1379183e-12)
(20 -1.3074738e-33 -1.0719267e-12)
(20 -8.5803628e-35 -1.6443837e-12)
(20 -1.9512491e-33 -7.4894458e-13)
(20 1.0464004e-34 3.725685e-12)
(20 8.7444368e-34 3.4275995e-12)
(20 -4.279592e-35 4.3629823e-12)
(20 -7.833108e-33 5.8798317e-13)
(20 -2.9793904e-33 2.3717649e-12)
(20 -4.3036434e-33 2.1223617e-12)
(20 0 -5.2037247e-12)
(20 1.2389594e-32 -1.1767253e-12)
(20 3.8155786e-33 1.8860269e-12)
(20 -3.4012177e-33 1.3605474e-12)
(20 7.1883782e-34 -2.4707891e-12)
(20 2.5796652e-33 3.7056109e-12)
(20 1.0074076e-33 1.0027032e-11)
(20 -2.1713286e-33 2.7392471e-12)
(20 1.7739329e-33 -7.3159247e-12)
(20 -5.8925635e-34 -1.1338726e-11)
(20 1.5951303e-33 -6.2356331e-12)
(20 7.5224571e-34 2.0021026e-12)
(20 9.4277785e-34 5.1605454e-12)
(20 -9.346021e-33 -3.0517429e-12)
(20 5.205354e-34 -7.2236962e-12)
(20 -1.3159798e-32 7.4564762e-12)
(20 -1.962407e-33 8.7452069e-12)
(20 -3.9726358e-34 -3.8755679e-12)
(20 3.6536537e-33 -4.9721581e-12)
(20 -1.0630702e-33 -4.9475069e-12)
(20 1.6694719e-34 -3.7746599e-12)
(20 4.2811214e-33 2.9008089e-12)
(20 3.533229e-33 5.8919238e-12)
(20 -6.431239e-34 5.2632666e-13)
(20 6.230174e-33 -1.0207594e-12)
(20 2.8697464e-33 1.0393181e-12)
(20 9.285279e-34 -2.4260696e-13)
(20 2.8762126e-33 9.2196573e-13)
(20 -9.7616146e-33 -3.1350907e-12)
(20 -7.2632013e-33 3.9558938e-13)
(20 1.935173e-33 4.4718534e-13)
(19.342676 1.2345269e-20 -0.77018968)
(20.488692 -6.7914059e-22 -4.056822)
(20.027666 1.0584435e-22 -2.3883485)
(20.449392 4.9866537e-22 -2.0433632)
(20.026069 5.1332073e-22 -3.2165301)
(20.118593 5.0679326e-22 -2.5786868)
(20.002109 -6.9436883e-21 -2.718431)
(20.023585 -6.2261447e-22 -2.2539959)
(19.90211 -1.1820163e-21 -2.6450912)
(19.751832 2.8080935e-20 -2.9720152)
(19.660599 -1.3237622e-21 -2.9817019)
(19.650621 3.4398672e-20 -2.5138238)
(19.763486 2.49444e-20 -1.5374862)
(19.871914 8.1518281e-22 -0.7750415)
(19.954559 -8.3994816e-21 -0.2609618)
(19.988181 -1.2139218e-22 -0.065623892)
(19.998612 2.6543411e-22 -0.0073841972)
(20.000105 1.7321546e-23 0.0005730353)
(20.000118 -5.4903466e-25 0.00060770666)
(20.000028 3.0535065e-24 0.00014118458)
(20.000003 -9.8553686e-29 1.3618629e-05)
(20 3.1369568e-27 -2.2904009e-06)
(20 1.0978076e-27 -7.548798e-07)
(20 -2.5106855e-28 -1.0022953e-07)
(20 -6.0254665e-29 5.608876e-09)
(20 4.1605517e-29 2.5214138e-09)
(20 -6.8131912e-31 3.0786764e-10)
(20 -1.3189333e-31 -1.6389738e-11)
(20 1.552927e-32 -8.1610202e-12)
(20 1.1255543e-32 8.4788778e-13)
(20 -9.8866602e-34 1.1823062e-12)
(20 6.8055792e-34 -1.6261615e-12)
(20 6.9319145e-35 1.4884685e-12)
(20 -8.4777399e-35 1.3693297e-12)
(20 -4.183709e-33 -3.1490146e-12)
(20 -9.9706671e-33 -1.4039875e-12)