/*--------------------------------*- C++ -*----------------------------------*\
| =========                 |                                                 |
| \\      /  F ield         | OpenFOAM: The Open Source CFD Toolbox           |
|  \\    /   O peration     | Version:  2406                                  |
|   \\  /    A nd           | Website:  www.openfoam.com                      |
|    \\/     M anipulation  |                                                 |
\*---------------------------------------------------------------------------*/
FoamFile
{
    version     2.0;
    format      ascii;
    arch        "LSB;label=32;scalar=64";
    class       volScalarField;
    location    "7e-05";
    object      alphat;
}
// * * * * * * * * * * * * * * * * * * * * * * * * * * * * * * * * * * * * * //

dimensions      [1 -1 -1 0 0 0 0];

internalField   nonuniform List<scalar> 
16000
(
1.1600772e-05
7.1927629e-05
0.00029844668
0.00021569216
0.00022921066
0.00014305975
0.00017412611
0.00016144891
0.00016381154
0.0002351267
0.00036601094
0.0010616322
0.001166325
0.0011663246
0.001166325
0.0011663251
0.0011663252
0.0011663252
0.0011663252
0.0011663252
0.0011663252
0.0011663252
0.0011663252
0.0011663252
0.0011663252
0.0011663252
0.0011663252
0.0011663252
0.0011663252
0.0011663252
0.0011663252
0.0011663252
0.0011663252
0.0011663252
0.0011663252
0.0011663252
0.0011663252
0.0011663252
0.0011663252
0.0011663252
0.0011663252
0.0011663252
0.0011663252
0.0011663252
0.0011663252
0.0011663252
0.0011663252
0.0011663252
0.0011663252
0.0011663252
0.0011663252
0.0011663252
0.0011663252
0.0011663252
0.0011663252
0.0011663252
0.0011663252
0.0011663252
0.0011663252
0.0011663252
0.0011663252
0.0011663252
0.0011663252
0.0011663252
0.0011663252
0.0011663252
0.0011663252
0.0011663252
0.0011663252
0.0011663252
0.0011663252
0.0011663252
0.0011663252
0.0011663252
0.0011663252
0.0011663252
0.0011663252
0.0011663252
0.0011663252
0.0011663252
1.1259264e-05
0.00010166275
0.00021614317
0.00017673116
0.00015403867
0.00012023006
0.0001476312
0.00013472825
7.7589869e-05
8.9048056e-05
0.0001186065
0.00028893609
0.0011663327
0.0011663247
0.0011663248
0.001166325
0.0011663252
0.0011663252
0.0011663252
0.0011663252
0.0011663252
0.0011663252
0.0011663252
0.0011663252
0.0011663252
0.0011663252
0.0011663252
0.0011663252
0.0011663252
0.0011663252
0.0011663252
0.0011663252
0.0011663252
0.0011663252
0.0011663252
0.0011663252
0.0011663252
0.0011663252
0.0011663252
0.0011663252
0.0011663252
0.0011663252
0.0011663252
0.0011663252
0.0011663252
0.0011663252
0.0011663252
0.0011663252
0.0011663252
0.0011663252
0.0011663252
0.0011663252
0.0011663252
0.0011663252
0.0011663252
0.0011663252
0.0011663252
0.0011663252
0.0011663252
0.0011663252
0.0011663252
0.0011663252
0.0011663252
0.0011663252
0.0011663252
0.0011663252
0.0011663252
0.0011663252
0.0011663252
0.0011663252
0.0011663252
0.0011663252
0.0011663252
0.0011663252
0.0011663252
0.0011663252
0.0011663252
0.0011663252
0.0011663252
0.0011663252
1.0952453e-05
0.00021796147
9.5924864e-05
0.00013232736
0.00013528531
0.00011405212
0.00010627551
0.00010184018
4.9814804e-05
5.2778941e-05
6.6127867e-05
0.00014705566
0.0005542917
0.0011663255
0.0011663246
0.0011663249
0.0011663251
0.0011663252
0.0011663252
0.0011663252
0.0011663252
0.0011663252
0.0011663252
0.0011663252
0.0011663252
0.0011663252
0.0011663252
0.0011663252
0.0011663252
0.0011663252
0.0011663252
0.0011663252
0.0011663252
0.0011663252
0.0011663252
0.0011663252
0.0011663252
0.0011663252
0.0011663252
0.0011663252
0.0011663252
0.0011663252
0.0011663252
0.0011663252
0.0011663252
0.0011663252
0.0011663252
0.0011663252
0.0011663252
0.0011663252
0.0011663252
0.0011663252
0.0011663252
0.0011663252
0.0011663252
0.0011663252
0.0011663252
0.0011663252
0.0011663252
0.0011663252
0.0011663252
0.0011663252
0.0011663252
0.0011663252
0.0011663252
0.0011663252
0.0011663252
0.0011663252
0.0011663252
0.0011663252
0.0011663252
0.0011663252
0.0011663252
0.0011663252
0.0011663252
0.0011663252
0.0011663252
0.0011663252
0.0011663252
0.0011663252
7.2935125e-06
0.00015711671
8.4555964e-05
0.00010413153
9.8314915e-05
9.5091127e-05
7.0310603e-05
8.2308673e-05
3.7052683e-05
3.6418861e-05
4.3445955e-05
9.1451899e-05
0.00030895673
0.0011663269
0.0011663244
0.0011663247
0.0011663251
0.0011663252
0.0011663252
0.0011663252
0.0011663252
0.0011663252
0.0011663252
0.0011663252
0.0011663252
0.0011663252
0.0011663252
0.0011663252
0.0011663252
0.0011663252
0.0011663252
0.0011663252
0.0011663252
0.0011663252
0.0011663252
0.0011663252
0.0011663252
0.0011663252
0.0011663252
0.0011663252
0.0011663252
0.0011663252
0.0011663252
0.0011663252
0.0011663252
0.0011663252
0.0011663252
0.0011663252
0.0011663252
0.0011663252
0.0011663252
0.0011663252
0.0011663252
0.0011663252
0.0011663252
0.0011663252
0.0011663252
0.0011663252
0.0011663252
0.0011663252
0.0011663252
0.0011663252
0.0011663252
0.0011663252
0.0011663252
0.0011663252
0.0011663252
0.0011663252
0.0011663252
0.0011663252
0.0011663252
0.0011663252
0.0011663252
0.0011663252
0.0011663252
0.0011663252
0.0011663252
0.0011663252
0.0011663252
0.0011663252
5.3882354e-06
7.7394769e-05
8.6386009e-05
9.2870874e-05
5.9114013e-05
7.1713797e-05
4.5381638e-05
6.9630812e-05
2.9321505e-05
2.7580916e-05
3.1301741e-05
6.2962139e-05
0.00019455378
0.00097783934
0.0011663241
0.0011663245
0.0011663251
0.0011663252
0.0011663252
0.0011663252
0.0011663252
0.0011663252
0.0011663252
0.0011663252
0.0011663252
0.0011663252
0.0011663252
0.0011663252
0.0011663252
0.0011663252
0.0011663252
0.0011663252
0.0011663252
0.0011663252
0.0011663252
0.0011663252
0.0011663252
0.0011663252
0.0011663252
0.0011663252
0.0011663252
0.0011663252
0.0011663252
0.0011663252
0.0011663252
0.0011663252
0.0011663252
0.0011663252
0.0011663252
0.0011663252
0.0011663252
0.0011663252
0.0011663252
0.0011663252
0.0011663252
0.0011663252
0.0011663252
0.0011663252
0.0011663252
0.0011663252
0.0011663252
0.0011663252
0.0011663252
0.0011663252
0.0011663252
0.0011663252
0.0011663252
0.0011663252
0.0011663252
0.0011663252
0.0011663252
0.0011663252
0.0011663252
0.0011663252
0.0011663252
0.0011663252
0.0011663252
0.0011663252
0.0011663252
0.0011663252
4.1455599e-06
4.6290103e-05
8.2237189e-05
9.3808285e-05
3.8978371e-05
5.3862008e-05
3.2139144e-05
6.3748072e-05
2.4638382e-05
2.1862047e-05
2.3857327e-05
4.6144083e-05
0.00013172565
0.00062640853
0.0011663239
0.0011663242
0.001166325
0.0011663251
0.0011663252
0.0011663252
0.0011663252
0.0011663252
0.0011663252
0.0011663252
0.0011663252
0.0011663252
0.0011663252
0.0011663252
0.0011663252
0.0011663252
0.0011663252
0.0011663252
0.0011663252
0.0011663252
0.0011663252
0.0011663252
0.0011663252
0.0011663252
0.0011663252
0.0011663252
0.0011663252
0.0011663252
0.0011663252
0.0011663252
0.0011663252
0.0011663252
0.0011663252
0.0011663252
0.0011663252
0.0011663252
0.0011663252
0.0011663252
0.0011663252
0.0011663252
0.0011663252
0.0011663252
0.0011663252
0.0011663252
0.0011663252
0.0011663252
0.0011663252
0.0011663252
0.0011663252
0.0011663252
0.0011663252
0.0011663252
0.0011663252
0.0011663252
0.0011663252
0.0011663252
0.0011663252
0.0011663252
0.0011663252
0.0011663252
0.0011663252
0.0011663252
0.0011663252
0.0011663252
0.0011663252
0.0011663252
3.3081278e-06
3.0080382e-05
7.7034267e-05
9.8785692e-05
2.8539761e-05
4.3730999e-05
2.494591e-05
6.2208418e-05
2.1711872e-05
1.7926501e-05
1.8903794e-05
3.5295664e-05
9.3886093e-05
0.00042512488
0.0011663237
0.0011663239
0.0011663249
0.0011663251
0.0011663252
0.0011663252
0.0011663252
0.0011663252
0.0011663252
0.0011663252
0.0011663252
0.0011663252
0.0011663252
0.0011663252
0.0011663252
0.0011663252
0.0011663252
0.0011663252
0.0011663252
0.0011663252
0.0011663252
0.0011663252
0.0011663252
0.0011663252
0.0011663252
0.0011663252
0.0011663252
0.0011663252
0.0011663252
0.0011663252
0.0011663252
0.0011663252
0.0011663252
0.0011663252
0.0011663252
0.0011663252
0.0011663252
0.0011663252
0.0011663252
0.0011663252
0.0011663252
0.0011663252
0.0011663252
0.0011663252
0.0011663252
0.0011663252
0.0011663252
0.0011663252
0.0011663252
0.0011663252
0.0011663252
0.0011663252
0.0011663252
0.0011663252
0.0011663252
0.0011663252
0.0011663252
0.0011663252
0.0011663252
0.0011663252
0.0011663252
0.0011663252
0.0011663252
0.0011663252
0.0011663252
0.0011663252
2.728623e-06
2.0698999e-05
7.1002077e-05
0.0001036825
2.2323253e-05
3.9329046e-05
2.052261e-05
6.5173914e-05
1.9831107e-05
1.5025046e-05
1.5417928e-05
2.7872906e-05
6.9588045e-05
0.00030175447
0.0011663237
0.0011663236
0.0011663248
0.0011663251
0.0011663252
0.0011663252
0.0011663252
0.0011663252
0.0011663252
0.0011663252
0.0011663252
0.0011663252
0.0011663252
0.0011663252
0.0011663252
0.0011663252
0.0011663252
0.0011663252
0.0011663252
0.0011663252
0.0011663252
0.0011663252
0.0011663252
0.0011663252
0.0011663252
0.0011663252
0.0011663252
0.0011663252
0.0011663252
0.0011663252
0.0011663252
0.0011663252
0.0011663252
0.0011663252
0.0011663252
0.0011663252
0.0011663252
0.0011663252
0.0011663252
0.0011663252
0.0011663252
0.0011663252
0.0011663252
0.0011663252
0.0011663252
0.0011663252
0.0011663252
0.0011663252
0.0011663252
0.0011663252
0.0011663252
0.0011663252
0.0011663252
0.0011663252
0.0011663252
0.0011663252
0.0011663252
0.0011663252
0.0011663252
0.0011663252
0.0011663252
0.0011663252
0.0011663252
0.0011663252
0.0011663252
0.0011663253
2.313442e-06
1.4983982e-05
6.3409553e-05
0.00010672746
1.8283715e-05
3.7779353e-05
1.7472205e-05
6.8762698e-05
1.851584e-05
1.283617e-05
1.2868179e-05
2.2560303e-05
5.317799e-05
0.0002219186
0.0011663238
0.0011663232
0.0011663247
0.0011663251
0.0011663252
0.0011663252
0.0011663252
0.0011663252
0.0011663252
0.0011663252
0.0011663252
0.0011663252
0.0011663252
0.0011663252
0.0011663252
0.0011663252
0.0011663252
0.0011663252
0.0011663252
0.0011663252
0.0011663252
0.0011663252
0.0011663252
0.0011663252
0.0011663252
0.0011663252
0.0011663252
0.0011663252
0.0011663252
0.0011663252
0.0011663252
0.0011663252
0.0011663252
0.0011663252
0.0011663252
0.0011663252
0.0011663252
0.0011663252
0.0011663252
0.0011663252
0.0011663252
0.0011663252
0.0011663252
0.0011663252
0.0011663252
0.0011663252
0.0011663252
0.0011663252
0.0011663252
0.0011663252
0.0011663252
0.0011663252
0.0011663252
0.0011663252
0.0011663252
0.0011663252
0.0011663252
0.0011663252
0.0011663252
0.0011663252
0.0011663252
0.0011663252
0.0011663252
0.0011663252
0.0011663252
0.0011663253
2.0068099e-06
1.1281352e-05
5.4582455e-05
0.00010866808
1.5466693e-05
3.6638803e-05
1.5224925e-05
6.7635942e-05
1.7600725e-05
1.1149303e-05
1.0925557e-05
1.8614788e-05
4.1635578e-05
0.00016790766
0.0011663243
0.0011663228
0.0011663245
0.0011663251
0.0011663252
0.0011663252
0.0011663252
0.0011663252
0.0011663252
0.0011663252
0.0011663252
0.0011663252
0.0011663252
0.0011663252
0.0011663252
0.0011663252
0.0011663252
0.0011663252
0.0011663252
0.0011663252
0.0011663252
0.0011663252
0.0011663252
0.0011663252
0.0011663252
0.0011663252
0.0011663252
0.0011663252
0.0011663252
0.0011663252
0.0011663252
0.0011663252
0.0011663252
0.0011663252
0.0011663252
0.0011663252
0.0011663252
0.0011663252
0.0011663252
0.0011663252
0.0011663252
0.0011663252
0.0011663252
0.0011663252
0.0011663252
0.0011663252
0.0011663252
0.0011663252
0.0011663252
0.0011663252
0.0011663252
0.0011663252
0.0011663252
0.0011663252
0.0011663252
0.0011663252
0.0011663252
0.0011663252
0.0011663252
0.0011663252
0.0011663252
0.0011663252
0.0011663252
0.0011663252
0.0011663252
0.0011663253
1.7805697e-06
8.7261809e-06
4.5015567e-05
0.0001111685
1.3499632e-05
3.6793141e-05
1.3497182e-05
5.9804147e-05
1.7002684e-05
9.8207756e-06
9.3983801e-06
1.5594735e-05
3.3246335e-05
0.00012998821
0.0011663251
0.0011663224
0.0011663244
0.0011663251
0.0011663252
0.0011663252
0.0011663252
0.0011663252
0.0011663252
0.0011663252
0.0011663252
0.0011663252
0.0011663252
0.0011663252
0.0011663252
0.0011663252
0.0011663252
0.0011663252
0.0011663252
0.0011663252
0.0011663252
0.0011663252
0.0011663252
0.0011663252
0.0011663252
0.0011663252
0.0011663252
0.0011663252
0.0011663252
0.0011663252
0.0011663252
0.0011663252
0.0011663252
0.0011663252
0.0011663252
0.0011663252
0.0011663252
0.0011663252
0.0011663252
0.0011663252
0.0011663252
0.0011663252
0.0011663252
0.0011663252
0.0011663252
0.0011663252
0.0011663252
0.0011663252
0.0011663252
0.0011663252
0.0011663252
0.0011663252
0.0011663252
0.0011663252
0.0011663252
0.0011663252
0.0011663252
0.0011663252
0.0011663252
0.0011663252
0.0011663252
0.0011663252
0.0011663252
0.0011663252
0.0011663252
0.0011663253
1.6186987e-06
6.9159199e-06
3.5666919e-05
0.00011217537
1.2142894e-05
3.8535861e-05
1.2121723e-05
4.9430734e-05
1.6645661e-05
8.743607e-06
8.168248e-06
1.322262e-05
2.6970606e-05
0.00010249874
0.0011513549
0.0011663219
0.0011663242
0.001166325
0.0011663252
0.0011663252
0.0011663252
0.0011663252
0.0011663252
0.0011663252
0.0011663252
0.0011663252
0.0011663252
0.0011663252
0.0011663252
0.0011663252
0.0011663252
0.0011663252
0.0011663252
0.0011663252
0.0011663252
0.0011663252
0.0011663252
0.0011663252
0.0011663252
0.0011663252
0.0011663252
0.0011663252
0.0011663252
0.0011663252
0.0011663252
0.0011663252
0.0011663252
0.0011663252
0.0011663252
0.0011663252
0.0011663252
0.0011663252
0.0011663252
0.0011663252
0.0011663252
0.0011663252
0.0011663252
0.0011663252
0.0011663252
0.0011663252
0.0011663252
0.0011663252
0.0011663252
0.0011663252
0.0011663252
0.0011663252
0.0011663252
0.0011663252
0.0011663252
0.0011663252
0.0011663252
0.0011663252
0.0011663252
0.0011663252
0.0011663252
0.0011663252
0.0011663252
0.0011663252
0.0011663252
0.0011663253
1.5315933e-06
5.7518926e-06
2.7273014e-05
0.00010748735
1.106501e-05
4.2204047e-05
1.0957542e-05
4.0020138e-05
1.6512006e-05
7.8436755e-06
7.1568067e-06
1.1318109e-05
2.2279846e-05
8.2019622e-05
0.0008407639
0.0011663214
0.0011663239
0.001166325
0.0011663252
0.0011663252
0.0011663252
0.0011663252
0.0011663252
0.0011663252
0.0011663252
0.0011663252
0.0011663252
0.0011663252
0.0011663252
0.0011663252
0.0011663252
0.0011663252
0.0011663252
0.0011663252
0.0011663252
0.0011663252
0.0011663252
0.0011663252
0.0011663252
0.0011663252
0.0011663252
0.0011663252
0.0011663252
0.0011663252
0.0011663252
0.0011663252
0.0011663252
0.0011663252
0.0011663252
0.0011663252
0.0011663252
0.0011663252
0.0011663252
0.0011663252
0.0011663252
0.0011663252
0.0011663252
0.0011663252
0.0011663252
0.0011663252
0.0011663252
0.0011663252
0.0011663252
0.0011663252
0.0011663252
0.0011663252
0.0011663252
0.0011663252
0.0011663252
0.0011663252
0.0011663252
0.0011663252
0.0011663252
0.0011663252
0.0011663252
0.0011663252
0.0011663252
0.0011663252
0.0011663252
0.0011663254
1.4784492e-06
5.2300763e-06
2.0816566e-05
9.8843502e-05
1.0052697e-05
4.6846976e-05
9.9666583e-06
3.2415565e-05
1.6610243e-05
7.0788981e-06
6.311558e-06
9.7587902e-06
1.8832736e-05
6.6394706e-05
0.00062923291
0.0011663208
0.0011663237
0.0011663249
0.0011663252
0.0011663252
0.0011663252
0.0011663252
0.0011663252
0.0011663252
0.0011663252
0.0011663252
0.0011663252
0.0011663252
0.0011663252
0.0011663252
0.0011663252
0.0011663252
0.0011663252
0.0011663252
0.0011663252
0.0011663252
0.0011663252
0.0011663252
0.0011663252
0.0011663252
0.0011663252
0.0011663252
0.0011663252
0.0011663252
0.0011663252
0.0011663252
0.0011663252
0.0011663252
0.0011663252
0.0011663252
0.0011663252
0.0011663252
0.0011663252
0.0011663252
0.0011663252
0.0011663252
0.0011663252
0.0011663252
0.0011663252
0.0011663252
0.0011663252
0.0011663252
0.0011663252
0.0011663252
0.0011663252
0.0011663252
0.0011663252
0.0011663252
0.0011663252
0.0011663252
0.0011663252
0.0011663252
0.0011663252
0.0011663252
0.0011663252
0.0011663252
0.0011663252
0.0011663252
0.0011663252
0.0011663254
1.4536035e-06
4.8271927e-06
1.5951074e-05
8.7629869e-05
9.1408477e-06
5.3157607e-05
9.1396249e-06
2.6553025e-05
1.6959059e-05
6.4249588e-06
5.5973634e-06
8.462826e-06
1.6022284e-05
5.4236405e-05
0.00047991281
0.0011663202
0.0011663233
0.0011663249
0.0011663252
0.0011663252
0.0011663252
0.0011663252
0.0011663252
0.0011663252
0.0011663252
0.0011663252
0.0011663252
0.0011663252
0.0011663252
0.0011663252
0.0011663252
0.0011663252
0.0011663252
0.0011663252
0.0011663252
0.0011663252
0.0011663252
0.0011663252
0.0011663252
0.0011663252
0.0011663252
0.0011663252
0.0011663252
0.0011663252
0.0011663252
0.0011663252
0.0011663252
0.0011663252
0.0011663252
0.0011663252
0.0011663252
0.0011663252
0.0011663252
0.0011663252
0.0011663252
0.0011663252
0.0011663252
0.0011663252
0.0011663252
0.0011663252
0.0011663252
0.0011663252
0.0011663252
0.0011663252
0.0011663252
0.0011663252
0.0011663252
0.0011663252
0.0011663252
0.0011663252
0.0011663252
0.0011663252
0.0011663252
0.0011663252
0.0011663252
0.0011663252
0.0011663252
0.0011663252
0.0011663252
0.0011663254
1.4681937e-06
4.2245723e-06
1.2398594e-05
6.9296637e-05
8.3442859e-06
5.5316344e-05
8.4600814e-06
2.206055e-05
1.7522879e-05
5.8603156e-06
4.9884876e-06
7.3736843e-06
1.3702247e-05
4.4631384e-05
0.00037159375
0.0011663195
0.001166323
0.0011663248
0.0011663252
0.0011663252
0.0011663252
0.0011663252
0.0011663252
0.0011663252
0.0011663252
0.0011663252
0.0011663252
0.0011663252
0.0011663252
0.0011663252
0.0011663252
0.0011663252
0.0011663252
0.0011663252
0.0011663252
0.0011663252
0.0011663252
0.0011663252
0.0011663252
0.0011663252
0.0011663252
0.0011663252
0.0011663252
0.0011663252
0.0011663252
0.0011663252
0.0011663252
0.0011663252
0.0011663252
0.0011663252
0.0011663252
0.0011663252
0.0011663252
0.0011663252
0.0011663252
0.0011663252
0.0011663252
0.0011663252
0.0011663252
0.0011663252
0.0011663252
0.0011663252
0.0011663252
0.0011663252
0.0011663252
0.0011663252
0.0011663252
0.0011663252
0.0011663252
0.0011663252
0.0011663252
0.0011663252
0.0011663252
0.0011663252
0.0011663252
0.0011663252
0.0011663252
0.0011663252
0.0011663252
0.0011663254
1.5183981e-06
4.0568282e-06
9.7223707e-06
5.4659712e-05
7.6192904e-06
4.3703978e-05
7.8809033e-06
1.8538419e-05
1.8028277e-05
5.3538593e-06
4.4613178e-06
6.4483386e-06
1.1770329e-05
3.6973218e-05
0.00029159878
0.0011663188
0.0011663226
0.0011663247
0.0011663252
0.0011663252
0.0011663252
0.0011663252
0.0011663252
0.0011663252
0.0011663252
0.0011663252
0.0011663252
0.0011663252
0.0011663252
0.0011663252
0.0011663252
0.0011663252
0.0011663252
0.0011663252
0.0011663252
0.0011663252
0.0011663252
0.0011663252
0.0011663252
0.0011663252
0.0011663252
0.0011663252
0.0011663252
0.0011663252
0.0011663252
0.0011663252
0.0011663252
0.0011663252
0.0011663252
0.0011663252
0.0011663252
0.0011663252
0.0011663252
0.0011663252
0.0011663252
0.0011663252
0.0011663252
0.0011663252
0.0011663252
0.0011663252
0.0011663252
0.0011663252
0.0011663252
0.0011663252
0.0011663252
0.0011663252
0.0011663252
0.0011663252
0.0011663252
0.0011663252
0.0011663252
0.0011663252
0.0011663252
0.0011663252
0.0011663252
0.0011663252
0.0011663252
0.0011663252
0.0011663252
0.0011663255
1.6063982e-06
3.4920421e-06
7.6962059e-06
3.6775999e-05
7.0919957e-06
3.1057542e-05
7.3325793e-06
1.5552926e-05
1.7848257e-05
4.8683488e-06
3.988485e-06
5.6491596e-06
1.0148878e-05
3.0853688e-05
0.00023214925
0.0011663181
0.0011663222
0.0011663246
0.0011663252
0.0011663252
0.0011663252
0.0011663252
0.0011663252
0.0011663252
0.0011663252
0.0011663252
0.0011663252
0.0011663252
0.0011663252
0.0011663252
0.0011663252
0.0011663252
0.0011663252
0.0011663252
0.0011663252
0.0011663252
0.0011663252
0.0011663252
0.0011663252
0.0011663252
0.0011663252
0.0011663252
0.0011663252
0.0011663252
0.0011663252
0.0011663252
0.0011663252
0.0011663252
0.0011663252
0.0011663252
0.0011663252
0.0011663252
0.0011663252
0.0011663252
0.0011663252
0.0011663252
0.0011663252
0.0011663252
0.0011663252
0.0011663252
0.0011663252
0.0011663252
0.0011663252
0.0011663252
0.0011663252
0.0011663252
0.0011663252
0.0011663252
0.0011663252
0.0011663252
0.0011663252
0.0011663252
0.0011663252
0.0011663252
0.0011663252
0.0011663252
0.0011663252
0.0011663252
0.0011663252
0.0011663255
1.787263e-06
2.6119076e-06
6.4792159e-06
3.5609098e-05
6.2966304e-06
2.4152898e-05
6.759675e-06
1.2830817e-05
1.7011293e-05
4.3878771e-06
3.5543196e-06
4.949417e-06
8.7834481e-06
2.5990614e-05
0.00018813277
0.0011663173
0.0011663217
0.0011663245
0.0011663252
0.0011663252
0.0011663252
0.0011663252
0.0011663252
0.0011663252
0.0011663252
0.0011663252
0.0011663252
0.0011663252
0.0011663252
0.0011663252
0.0011663252
0.0011663252
0.0011663252
0.0011663252
0.0011663252
0.0011663252
0.0011663252
0.0011663252
0.0011663252
0.0011663252
0.0011663252
0.0011663252
0.0011663252
0.0011663252
0.0011663252
0.0011663252
0.0011663252
0.0011663252
0.0011663252
0.0011663252
0.0011663252
0.0011663252
0.0011663252
0.0011663252
0.0011663252
0.0011663252
0.0011663252
0.0011663252
0.0011663252
0.0011663252
0.0011663252
0.0011663252
0.0011663252
0.0011663252
0.0011663252
0.0011663252
0.0011663252
0.0011663252
0.0011663252
0.0011663252
0.0011663252
0.0011663252
0.0011663252
0.0011663252
0.0011663252
0.0011663252
0.0011663252
0.0011663252
0.0011663252
0.0011663255
1.9977075e-06
2.8132812e-06
4.495408e-06
2.555113e-05
5.7163327e-06
1.7498955e-05
5.8701592e-06
1.0905893e-05
1.6217641e-05
3.9548019e-06
3.16972e-06
4.3521271e-06
7.6512714e-06
2.2178542e-05
0.00015589661
0.0011663165
0.0011663212
0.0011663244
0.0011663252
0.0011663252
0.0011663252
0.0011663252
0.0011663252
0.0011663252
0.0011663252
0.0011663252
0.0011663252
0.0011663252
0.0011663252
0.0011663252
0.0011663252
0.0011663252
0.0011663252
0.0011663252
0.0011663252
0.0011663252
0.0011663252
0.0011663252
0.0011663252
0.0011663252
0.0011663252
0.0011663252
0.0011663252
0.0011663252
0.0011663252
0.0011663252
0.0011663252
0.0011663252
0.0011663252
0.0011663252
0.0011663252
0.0011663252
0.0011663252
0.0011663252
0.0011663252
0.0011663252
0.0011663252
0.0011663252
0.0011663252
0.0011663252
0.0011663252
0.0011663252
0.0011663252
0.0011663252
0.0011663252
0.0011663252
0.0011663252
0.0011663252
0.0011663252
0.0011663252
0.0011663252
0.0011663252
0.0011663252
0.0011663252
0.0011663252
0.0011663252
0.0011663252
0.0011663252
0.0011663252
0.0011663256
2.0797033e-06
2.3811521e-06
3.4953056e-06
1.3310259e-05
5.6380306e-06
1.0260133e-05
5.5517671e-06
1.0155568e-05
1.5310008e-05
3.6251204e-06
2.8572749e-06
3.8775576e-06
6.7540698e-06
1.9296021e-05
0.00013312775
0.0011663156
0.0011663206
0.0011663243
0.0011663252
0.0011663252
0.0011663252
0.0011663252
0.0011663252
0.0011663252
0.0011663252
0.0011663252
0.0011663252
0.0011663252
0.0011663252
0.0011663252
0.0011663252
0.0011663252
0.0011663252
0.0011663252
0.0011663252
0.0011663252
0.0011663252
0.0011663252
0.0011663252
0.0011663252
0.0011663252
0.0011663252
0.0011663252
0.0011663252
0.0011663252
0.0011663252
0.0011663252
0.0011663252
0.0011663252
0.0011663252
0.0011663252
0.0011663252
0.0011663252
0.0011663252
0.0011663252
0.0011663252
0.0011663252
0.0011663252
0.0011663252
0.0011663252
0.0011663252
0.0011663252
0.0011663252
0.0011663252
0.0011663252
0.0011663252
0.0011663252
0.0011663252
0.0011663252
0.0011663252
0.0011663252
0.0011663252
0.0011663252
0.0011663252
0.0011663252
0.0011663252
0.0011663252
0.0011663252
0.0011663252
0.0011663256
1.8062157e-06
2.5721703e-06
2.8960189e-06
1.046491e-05
5.4710833e-06
7.7558594e-06
5.3611376e-06
9.3947921e-06
1.391877e-05
3.3420406e-06
2.613342e-06
3.5184528e-06
6.0953056e-06
1.7325057e-05
0.00011884359
0.0011663147
0.0011663202
0.0011663242
0.0011663252
0.0011663252
0.0011663252
0.0011663252
0.0011663252
0.0011663252
0.0011663252
0.0011663252
0.0011663252
0.0011663252
0.0011663252
0.0011663252
0.0011663252
0.0011663252
0.0011663252
0.0011663252
0.0011663252
0.0011663252
0.0011663252
0.0011663252
0.0011663252
0.0011663252
0.0011663252
0.0011663252
0.0011663252
0.0011663252
0.0011663252
0.0011663252
0.0011663252
0.0011663252
0.0011663252
0.0011663252
0.0011663252
0.0011663252
0.0011663252
0.0011663252
0.0011663252
0.0011663252
0.0011663252
0.0011663252
0.0011663252
0.0011663252
0.0011663252
0.0011663252
0.0011663252
0.0011663252
0.0011663252
0.0011663252
0.0011663252
0.0011663252
0.0011663252
0.0011663252
0.0011663252
0.0011663252
0.0011663252
0.0011663252
0.0011663252
0.0011663252
0.0011663252
0.0011663252
0.0011663252
0.0011663256
1.5204219e-06
2.152902e-06
2.5890467e-06
9.5899265e-06
5.317827e-06
7.0428845e-06
4.8927982e-06
8.7021873e-06
1.2063814e-05
3.0581462e-06
2.4171265e-06
3.2619973e-06
5.6661042e-06
1.6270277e-05
0.00011315945
0.0011663138
0.0011663199
0.0011663241
0.0011663252
0.0011663252
0.0011663252
0.0011663252
0.0011663252
0.0011663252
0.0011663252
0.0011663252
0.0011663252
0.0011663252
0.0011663252
0.0011663252
0.0011663252
0.0011663252
0.0011663252
0.0011663252
0.0011663252
0.0011663252
0.0011663252
0.0011663252
0.0011663252
0.0011663252
0.0011663252
0.0011663252
0.0011663252
0.0011663252
0.0011663252
0.0011663252
0.0011663252
0.0011663252
0.0011663252
0.0011663252
0.0011663252
0.0011663252
0.0011663252
0.0011663252
0.0011663252
0.0011663252
0.0011663252
0.0011663252
0.0011663252
0.0011663252
0.0011663252
0.0011663252
0.0011663252
0.0011663252
0.0011663252
0.0011663252
0.0011663252
0.0011663252
0.0011663252
0.0011663252
0.0011663252
0.0011663252
0.0011663252
0.0011663252
0.0011663252
0.0011663252
0.0011663252
0.0011663252
0.0011663252
0.0011663257
1.3002025e-06
2.083394e-06
2.4727027e-06
8.4077056e-06
8.2277779e-06
6.9939497e-06
4.4621516e-06
8.2541084e-06
1.502669e-05
2.7892512e-06
2.2685103e-06
3.1048919e-06
5.4652918e-06
1.6183853e-05
0.00011718382
0.0011663129
0.0011663198
0.0011663242
0.0011663252
0.0011663252
0.0011663252
0.0011663252
0.0011663252
0.0011663252
0.0011663252
0.0011663252
0.0011663252
0.0011663252
0.0011663252
0.0011663252
0.0011663252
0.0011663252
0.0011663252
0.0011663252
0.0011663252
0.0011663252
0.0011663252
0.0011663252
0.0011663252
0.0011663252
0.0011663252
0.0011663252
0.0011663252
0.0011663252
0.0011663252
0.0011663252
0.0011663252
0.0011663252
0.0011663252
0.0011663252
0.0011663252
0.0011663252
0.0011663252
0.0011663252
0.0011663252
0.0011663252
0.0011663252
0.0011663252
0.0011663252
0.0011663252
0.0011663252
0.0011663252
0.0011663252
0.0011663252
0.0011663252
0.0011663252
0.0011663252
0.0011663252
0.0011663252
0.0011663252
0.0011663252
0.0011663252
0.0011663252
0.0011663252
0.0011663252
0.0011663252
0.0011663252
0.0011663252
0.0011663252
0.0011663257
1.1674822e-06
2.7633271e-06
2.9061928e-06
7.6589175e-06
1.0468829e-05
8.0294904e-06
4.5602287e-06
7.8539425e-06
1.0071679e-05
2.5649276e-06
2.1543239e-06
3.0457571e-06
5.4925023e-06
1.7164936e-05
0.00013399609
0.0011663124
0.00116632
0.0011663243
0.0011663252
0.0011663252
0.0011663252
0.0011663252
0.0011663252
0.0011663252
0.0011663252
0.0011663252
0.0011663252
0.0011663252
0.0011663252
0.0011663252
0.0011663252
0.0011663252
0.0011663252
0.0011663252
0.0011663252
0.0011663252
0.0011663252
0.0011663252
0.0011663252
0.0011663252
0.0011663252
0.0011663252
0.0011663252
0.0011663252
0.0011663252
0.0011663252
0.0011663252
0.0011663252
0.0011663252
0.0011663252
0.0011663252
0.0011663252
0.0011663252
0.0011663252
0.0011663252
0.0011663252
0.0011663252
0.0011663252
0.0011663252
0.0011663252
0.0011663252
0.0011663252
0.0011663252
0.0011663252
0.0011663252
0.0011663252
0.0011663252
0.0011663252
0.0011663252
0.0011663252
0.0011663252
0.0011663252
0.0011663252
0.0011663252
0.0011663252
0.0011663252
0.0011663252
0.0011663252
0.0011663252
0.0011663257
1.0181859e-06
2.561622e-06
2.7693355e-06
6.1286976e-06
5.2947487e-06
7.9991734e-06
3.7147453e-06
7.0465182e-06
5.8495776e-06
2.540651e-06
2.066145e-06
3.0802847e-06
5.7583177e-06
1.9444262e-05
0.00017047925
0.0011663124
0.0011663205
0.0011663244
0.0011663252
0.0011663252
0.0011663252
0.0011663252
0.0011663252
0.0011663252
0.0011663252
0.0011663252
0.0011663252
0.0011663252
0.0011663252
0.0011663252
0.0011663252
0.0011663252
0.0011663252
0.0011663252
0.0011663252
0.0011663252
0.0011663252
0.0011663252
0.0011663252
0.0011663252
0.0011663252
0.0011663252
0.0011663252
0.0011663252
0.0011663252
0.0011663252
0.0011663252
0.0011663252
0.0011663252
0.0011663252
0.0011663252
0.0011663252
0.0011663252
0.0011663252
0.0011663252
0.0011663252
0.0011663252
0.0011663252
0.0011663252
0.0011663252
0.0011663252
0.0011663252
0.0011663252
0.0011663252
0.0011663252
0.0011663252
0.0011663252
0.0011663252
0.0011663252
0.0011663252
0.0011663252
0.0011663252
0.0011663252
0.0011663252
0.0011663252
0.0011663252
0.0011663252
0.0011663252
0.0011663252
0.0011663258
9.8869735e-07
1.5964013e-06
1.9452813e-06
3.8931373e-06
2.7292478e-06
7.0392177e-06
2.9392747e-06
5.9928001e-06
4.5967782e-06
2.2690219e-06
2.0237615e-06
3.1854021e-06
6.2572216e-06
2.3002418e-05
0.00023448606
0.0011663129
0.0011663211
0.0011663246
0.0011663252
0.0011663252
0.0011663252
0.0011663252
0.0011663252
0.0011663252
0.0011663252
0.0011663252
0.0011663252
0.0011663252
0.0011663252
0.0011663252
0.0011663252
0.0011663252
0.0011663252
0.0011663252
0.0011663252
0.0011663252
0.0011663252
0.0011663252
0.0011663252
0.0011663252
0.0011663252
0.0011663252
0.0011663252
0.0011663252
0.0011663252
0.0011663252
0.0011663252
0.0011663252
0.0011663252
0.0011663252
0.0011663252
0.0011663252
0.0011663252
0.0011663252
0.0011663252
0.0011663252
0.0011663252
0.0011663252
0.0011663252
0.0011663252
0.0011663252
0.0011663252
0.0011663252
0.0011663252
0.0011663252
0.0011663252
0.0011663252
0.0011663252
0.0011663252
0.0011663252
0.0011663252
0.0011663252
0.0011663252
0.0011663252
0.0011663252
0.0011663252
0.0011663252
0.0011663252
0.0011663252
0.0011663258
8.8715469e-07
1.1652287e-06
2.1953448e-06
3.2695749e-06
2.2134851e-06
5.9680496e-06
2.7840769e-06
5.2831932e-06
3.9021549e-06
2.1717907e-06
2.0089872e-06
3.3127253e-06
6.9127896e-06
2.6898279e-05
0.00031829484
0.0011663135
0.0011663217
0.0011663247
0.0011663252
0.0011663252
0.0011663252
0.0011663252
0.0011663252
0.0011663252
0.0011663252
0.0011663252
0.0011663252
0.0011663252
0.0011663252
0.0011663252
0.0011663252
0.0011663252
0.0011663252
0.0011663252
0.0011663252
0.0011663252
0.0011663252
0.0011663252
0.0011663252
0.0011663252
0.0011663252
0.0011663252
0.0011663252
0.0011663252
0.0011663252
0.0011663252
0.0011663252
0.0011663252
0.0011663252
0.0011663252