/*--------------------------------*- C++ -*----------------------------------*\
| =========                 |                                                 |
| \\      /  F ield         | OpenFOAM: The Open Source CFD Toolbox           |
|  \\    /   O peration     | Version:  2406                                  |
|   \\  /    A nd           | Website:  www.openfoam.com                      |
|    \\/     M anipulation  |                                                 |
\*---------------------------------------------------------------------------*/
FoamFile
{
    version     2.0;
    format      ascii;
    arch        "LSB;label=32;scalar=64";
    class       volScalarField;
    location    "7e-05";
    object      k;
}
// * * * * * * * * * * * * * * * * * * * * * * * * * * * * * * * * * * * * * //

dimensions      [0 2 -2 0 0 0 0];

internalField   nonuniform List<scalar> 
16000
(
0.010646423
0.0099781639
0.010003149
0.010001841
0.010001042
0.010000918
0.010000119
0.0099996682
0.0099994062
0.0099993434
0.0099993628
0.0099993715
0.0099993703
0.0099993726
0.0099993706
0.0099993701
0.00999937
0.00999937
0.00999937
0.00999937
0.00999937
0.00999937
0.00999937
0.00999937
0.00999937
0.00999937
0.00999937
0.00999937
0.00999937
0.00999937
0.00999937
0.00999937
0.00999937
0.00999937
0.00999937
0.00999937
0.00999937
0.00999937
0.00999937
0.00999937
0.00999937
0.00999937
0.00999937
0.00999937
0.00999937
0.00999937
0.00999937
0.00999937
0.00999937
0.00999937
0.00999937
0.00999937
0.00999937
0.00999937
0.00999937
0.00999937
0.00999937
0.00999937
0.00999937
0.00999937
0.00999937
0.00999937
0.00999937
0.00999937
0.00999937
0.00999937
0.00999937
0.00999937
0.00999937
0.00999937
0.00999937
0.00999937
0.00999937
0.00999937
0.00999937
0.00999937
0.00999937
0.00999937
0.00999937
0.0099993701
0.010655933
0.0099871014
0.0099986866
0.010003372
0.010000731
0.01000051
0.0099993769
0.0099989566
0.0099988508
0.0099991356
0.0099992911
0.0099993715
0.0099993537
0.0099993721
0.0099993715
0.0099993706
0.0099993701
0.00999937
0.00999937
0.00999937
0.00999937
0.00999937
0.00999937
0.00999937
0.00999937
0.00999937
0.00999937
0.00999937
0.00999937
0.00999937
0.00999937
0.00999937
0.00999937
0.00999937
0.00999937
0.00999937
0.00999937
0.00999937
0.00999937
0.00999937
0.00999937
0.00999937
0.00999937
0.00999937
0.00999937
0.00999937
0.00999937
0.00999937
0.00999937
0.00999937
0.00999937
0.00999937
0.00999937
0.00999937
0.00999937
0.00999937
0.00999937
0.00999937
0.00999937
0.00999937
0.00999937
0.00999937
0.00999937
0.00999937
0.00999937
0.00999937
0.00999937
0.00999937
0.00999937
0.00999937
0.00999937
0.00999937
0.00999937
0.00999937
0.00999937
0.00999937
0.00999937
0.00999937
0.00999937
0.0099993702
0.010665287
0.0099975751
0.0099896312
0.010006208
0.0099979457
0.010000442
0.0099976017
0.0099975125
0.0099974255
0.009998564
0.0099991479
0.0099993624
0.0099993427
0.00999937
0.0099993724
0.0099993713
0.0099993702
0.00999937
0.00999937
0.00999937
0.00999937
0.00999937
0.00999937
0.00999937
0.00999937
0.00999937
0.00999937
0.00999937
0.00999937
0.00999937
0.00999937
0.00999937
0.00999937
0.00999937
0.00999937
0.00999937
0.00999937
0.00999937
0.00999937
0.00999937
0.00999937
0.00999937
0.00999937
0.00999937
0.00999937
0.00999937
0.00999937
0.00999937
0.00999937
0.00999937
0.00999937
0.00999937
0.00999937
0.00999937
0.00999937
0.00999937
0.00999937
0.00999937
0.00999937
0.00999937
0.00999937
0.00999937
0.00999937
0.00999937
0.00999937
0.00999937
0.00999937
0.00999937
0.00999937
0.00999937
0.00999937
0.00999937
0.00999937
0.00999937
0.00999937
0.00999937
0.00999937
0.00999937
0.00999937
0.0099993703
0.010672473
0.01001149
0.009978117
0.010008565
0.0099938007
0.010000797
0.0099953991
0.0099959379
0.0099956342
0.0099975263
0.009998712
0.0099993509
0.0099993312
0.0099993694
0.0099993735
0.0099993721
0.0099993703
0.00999937
0.00999937
0.00999937
0.00999937
0.00999937
0.00999937
0.00999937
0.00999937
0.00999937
0.00999937
0.00999937
0.00999937
0.00999937
0.00999937
0.00999937
0.00999937
0.00999937
0.00999937
0.00999937
0.00999937
0.00999937
0.00999937
0.00999937
0.00999937
0.00999937
0.00999937
0.00999937
0.00999937
0.00999937
0.00999937
0.00999937
0.00999937
0.00999937
0.00999937
0.00999937
0.00999937
0.00999937
0.00999937
0.00999937
0.00999937
0.00999937
0.00999937
0.00999937
0.00999937
0.00999937
0.00999937
0.00999937
0.00999937
0.00999937
0.00999937
0.00999937
0.00999937
0.00999937
0.00999937
0.00999937
0.00999937
0.00999937
0.00999937
0.00999937
0.00999937
0.00999937
0.00999937
0.0099993704
0.010680322
0.010024695
0.0099658578
0.010011316
0.0099896543
0.010000637
0.0099918442
0.0099953784
0.0099936093
0.0099962098
0.0099980421
0.009999286
0.0099993164
0.0099993719
0.0099993746
0.009999373
0.0099993705
0.00999937
0.00999937
0.00999937
0.00999937
0.00999937
0.00999937
0.00999937
0.00999937
0.00999937
0.00999937
0.00999937
0.00999937
0.00999937
0.00999937
0.00999937
0.00999937
0.00999937
0.00999937
0.00999937
0.00999937
0.00999937
0.00999937
0.00999937
0.00999937
0.00999937
0.00999937
0.00999937
0.00999937
0.00999937
0.00999937
0.00999937
0.00999937
0.00999937
0.00999937
0.00999937
0.00999937
0.00999937
0.00999937
0.00999937
0.00999937
0.00999937
0.00999937
0.00999937
0.00999937
0.00999937
0.00999937
0.00999937
0.00999937
0.00999937
0.00999937
0.00999937
0.00999937
0.00999937
0.00999937
0.00999937
0.00999937
0.00999937
0.00999937
0.00999937
0.00999937
0.00999937
0.00999937
0.0099993705
0.010684634
0.010041449
0.0099516426
0.010014133
0.0099871314
0.0099989382
0.009988909
0.0099942476
0.0099913552
0.0099946643
0.0099971866
0.0099990911
0.0099992985
0.0099993755
0.0099993755
0.0099993741
0.0099993707
0.0099993701
0.00999937
0.00999937
0.00999937
0.00999937
0.00999937
0.00999937
0.00999937
0.00999937
0.00999937
0.00999937
0.00999937
0.00999937
0.00999937
0.00999937
0.00999937
0.00999937
0.00999937
0.00999937
0.00999937
0.00999937
0.00999937
0.00999937
0.00999937
0.00999937
0.00999937
0.00999937
0.00999937
0.00999937
0.00999937
0.00999937
0.00999937
0.00999937
0.00999937
0.00999937
0.00999937
0.00999937
0.00999937
0.00999937
0.00999937
0.00999937
0.00999937
0.00999937
0.00999937
0.00999937
0.00999937
0.00999937
0.00999937
0.00999937
0.00999937
0.00999937
0.00999937
0.00999937
0.00999937
0.00999937
0.00999937
0.00999937
0.00999937
0.00999937
0.00999937
0.00999937
0.00999937
0.0099993706
0.010685294
0.010061826
0.0099350036
0.010017442
0.0099846113
0.0099969757
0.0099865342
0.0099925072
0.0099889516
0.0099929096
0.0099961551
0.0099987814
0.0099992782
0.0099993791
0.009999376
0.0099993754
0.0099993711
0.0099993701
0.00999937
0.00999937
0.00999937
0.00999937
0.00999937
0.00999937
0.00999937
0.00999937
0.00999937
0.00999937
0.00999937
0.00999937
0.00999937
0.00999937
0.00999937
0.00999937
0.00999937
0.00999937
0.00999937
0.00999937
0.00999937
0.00999937
0.00999937
0.00999937
0.00999937
0.00999937
0.00999937
0.00999937
0.00999937
0.00999937
0.00999937
0.00999937
0.00999937
0.00999937
0.00999937
0.00999937
0.00999937
0.00999937
0.00999937
0.00999937
0.00999937
0.00999937
0.00999937
0.00999937
0.00999937
0.00999937
0.00999937
0.00999937
0.00999937
0.00999937
0.00999937
0.00999937
0.00999937
0.00999937
0.00999937
0.00999937
0.00999937
0.00999937
0.00999937
0.00999937
0.00999937
0.0099993708
0.010682054
0.010086601
0.0099156558
0.010021454
0.0099816969
0.0099954301
0.0099846061
0.0099894789
0.0099867561
0.0099909595
0.0099949535
0.0099983648
0.0099992437
0.0099993827
0.0099993761
0.0099993768
0.0099993716
0.0099993702
0.00999937
0.00999937
0.00999937
0.00999937
0.00999937
0.00999937
0.00999937
0.00999937
0.00999937
0.00999937
0.00999937
0.00999937
0.00999937
0.00999937
0.00999937
0.00999937
0.00999937
0.00999937
0.00999937
0.00999937
0.00999937
0.00999937
0.00999937
0.00999937
0.00999937
0.00999937
0.00999937
0.00999937
0.00999937
0.00999937
0.00999937
0.00999937
0.00999937
0.00999937
0.00999937
0.00999937
0.00999937
0.00999937
0.00999937
0.00999937
0.00999937
0.00999937
0.00999937
0.00999937
0.00999937
0.00999937
0.00999937
0.00999937
0.00999937
0.00999937
0.00999937
0.00999937
0.00999937
0.00999937
0.00999937
0.00999937
0.00999937
0.00999937
0.00999937
0.00999937
0.00999937
0.0099993709
0.010674942
0.010116324
0.0098929793
0.010026374
0.0099785298
0.0099937303
0.009982725
0.0099861147
0.0099845726
0.0099888241
0.0099935846
0.009997845
0.0099991606
0.0099993865
0.0099993757
0.0099993783
0.0099993721
0.0099993702
0.00999937
0.00999937
0.00999937
0.00999937
0.00999937
0.00999937
0.00999937
0.00999937
0.00999937
0.00999937
0.00999937
0.00999937
0.00999937
0.00999937
0.00999937
0.00999937
0.00999937
0.00999937
0.00999937
0.00999937
0.00999937
0.00999937
0.00999937
0.00999937
0.00999937
0.00999937
0.00999937
0.00999937
0.00999937
0.00999937
0.00999937
0.00999937
0.00999937
0.00999937
0.00999937
0.00999937
0.00999937
0.00999937
0.00999937
0.00999937
0.00999937
0.00999937
0.00999937
0.00999937
0.00999937
0.00999937
0.00999937
0.00999937
0.00999937
0.00999937
0.00999937
0.00999937
0.00999937
0.00999937
0.00999937
0.00999937
0.00999937
0.00999937
0.00999937
0.00999937
0.00999937
0.009999371
0.010663237
0.010152564
0.0098659451
0.010032565
0.0099750411
0.0099918482
0.009980768
0.0099828313
0.009982082
0.0099865123
0.0099920465
0.009997224
0.0099990279
0.0099993905
0.0099993748
0.00999938
0.0099993728
0.0099993703
0.00999937
0.00999937
0.00999937
0.00999937
0.00999937
0.00999937
0.00999937
0.00999937
0.00999937
0.00999937
0.00999937
0.00999937
0.00999937
0.00999937
0.00999937
0.00999937
0.00999937
0.00999937
0.00999937
0.00999937
0.00999937
0.00999937
0.00999937
0.00999937
0.00999937
0.00999937
0.00999937
0.00999937
0.00999937
0.00999937
0.00999937
0.00999937
0.00999937
0.00999937
0.00999937
0.00999937
0.00999937
0.00999937
0.00999937
0.00999937
0.00999937
0.00999937
0.00999937
0.00999937
0.00999937
0.00999937
0.00999937
0.00999937
0.00999937
0.00999937
0.00999937
0.00999937
0.00999937
0.00999937
0.00999937
0.00999937
0.00999937
0.00999937
0.00999937
0.00999937
0.00999937
0.0099993712
0.010645044
0.010198472
0.0098331634
0.010040373
0.0099710937
0.0099898465
0.0099786556
0.0099797532
0.0099791408
0.0099840499
0.0099903324
0.0099964992
0.0099988451
0.0099993948
0.0099993739
0.0099993819
0.0099993736
0.0099993704
0.00999937
0.00999937
0.00999937
0.00999937
0.00999937
0.00999937
0.00999937
0.00999937
0.00999937
0.00999937
0.00999937
0.00999937
0.00999937
0.00999937
0.00999937
0.00999937
0.00999937
0.00999937
0.00999937
0.00999937
0.00999937
0.00999937
0.00999937
0.00999937
0.00999937
0.00999937
0.00999937
0.00999937
0.00999937
0.00999937
0.00999937
0.00999937
0.00999937
0.00999937
0.00999937
0.00999937
0.00999937
0.00999937
0.00999937
0.00999937
0.00999937
0.00999937
0.00999937
0.00999937
0.00999937
0.00999937
0.00999937
0.00999937
0.00999937
0.00999937
0.00999937
0.00999937
0.00999937
0.00999937
0.00999937
0.00999937
0.00999937
0.00999937
0.00999937
0.00999937
0.00999937
0.0099993714
0.010619441
0.010255777
0.0097936667
0.010049964
0.0099665765
0.0099877448
0.0099763741
0.0099766403
0.0099758071
0.0099814933
0.0099884291
0.0099956638
0.0099986101
0.0099993995
0.0099993735
0.0099993839
0.0099993745
0.0099993706
0.00999937
0.00999937
0.00999937
0.00999937
0.00999937
0.00999937
0.00999937
0.00999937
0.00999937
0.00999937
0.00999937
0.00999937
0.00999937
0.00999937
0.00999937
0.00999937
0.00999937
0.00999937
0.00999937
0.00999937
0.00999937
0.00999937
0.00999937
0.00999937
0.00999937
0.00999937
0.00999937
0.00999937
0.00999937
0.00999937
0.00999937
0.00999937
0.00999937
0.00999937
0.00999937
0.00999937
0.00999937
0.00999937
0.00999937
0.00999937
0.00999937
0.00999937
0.00999937
0.00999937
0.00999937
0.00999937
0.00999937
0.00999937
0.00999937
0.00999937
0.00999937
0.00999937
0.00999937
0.00999937
0.00999937
0.00999937
0.00999937
0.00999937
0.00999937
0.00999937
0.00999937
0.0099993715
0.010589215
0.010321218
0.0097481943
0.01006124
0.0099616983
0.0099854732
0.009974045
0.0099733302
0.0099720451
0.0099788806
0.0099863198
0.0099947073
0.0099983195
0.0099994045
0.0099993737
0.0099993861
0.0099993755
0.0099993708
0.00999937
0.00999937
0.00999937
0.00999937
0.00999937
0.00999937
0.00999937
0.00999937
0.00999937
0.00999937
0.00999937
0.00999937
0.00999937
0.00999937
0.00999937
0.00999937
0.00999937
0.00999937
0.00999937
0.00999937
0.00999937
0.00999937
0.00999937
0.00999937
0.00999937
0.00999937
0.00999937
0.00999937
0.00999937
0.00999937
0.00999937
0.00999937
0.00999937
0.00999937
0.00999937
0.00999937
0.00999937
0.00999937
0.00999937
0.00999937
0.00999937
0.00999937
0.00999937
0.00999937
0.00999937
0.00999937
0.00999937
0.00999937
0.00999937
0.00999937
0.00999937
0.00999937
0.00999937
0.00999937
0.00999937
0.00999937
0.00999937
0.00999937
0.00999937
0.00999937
0.00999937
0.0099993717
0.010555962
0.010393176
0.0096971909
0.010074266
0.0099563657
0.009983033
0.0099716764
0.0099697761
0.0099679879
0.0099760658
0.009983979
0.0099936151
0.0099979681
0.0099993951
0.0099993735
0.0099993884
0.0099993767
0.009999371
0.00999937
0.00999937
0.00999937
0.00999937
0.00999937
0.00999937
0.00999937
0.00999937
0.00999937
0.00999937
0.00999937
0.00999937
0.00999937
0.00999937
0.00999937
0.00999937
0.00999937
0.00999937
0.00999937
0.00999937
0.00999937
0.00999937
0.00999937
0.00999937
0.00999937
0.00999937
0.00999937
0.00999937
0.00999937
0.00999937
0.00999937
0.00999937
0.00999937
0.00999937
0.00999937
0.00999937
0.00999937
0.00999937
0.00999937
0.00999937
0.00999937
0.00999937
0.00999937
0.00999937
0.00999937
0.00999937
0.00999937
0.00999937
0.00999937
0.00999937
0.00999937
0.00999937
0.00999937
0.00999937
0.00999937
0.00999937
0.00999937
0.00999937
0.00999937
0.00999937
0.00999937
0.0099993719
0.010517633
0.010474288
0.0096387988
0.010089639
0.0099502089
0.0099804224
0.0099692461
0.0099659575
0.0099636711
0.0099729994
0.0099813777
0.0099923696
0.0099975484
0.0099993634
0.0099993732
0.009999391
0.009999378
0.0099993713
0.00999937
0.00999937
0.00999937
0.00999937
0.00999937
0.00999937
0.00999937
0.00999937
0.00999937
0.00999937
0.00999937
0.00999937
0.00999937
0.00999937
0.00999937
0.00999937
0.00999937
0.00999937
0.00999937
0.00999937
0.00999937
0.00999937
0.00999937
0.00999937
0.00999937
0.00999937
0.00999937
0.00999937
0.00999937
0.00999937
0.00999937
0.00999937
0.00999937
0.00999937
0.00999937
0.00999937
0.00999937
0.00999937
0.00999937
0.00999937
0.00999937
0.00999937
0.00999937
0.00999937
0.00999937
0.00999937
0.00999937
0.00999937
0.00999937
0.00999937
0.00999937
0.00999937
0.00999937
0.00999937
0.00999937
0.00999937
0.00999937
0.00999937
0.00999937
0.00999937
0.00999937
0.0099993721
0.010473067
0.010566316
0.0095721698
0.010107957
0.0099429091
0.0099776477
0.0099667165
0.0099618395
0.0099591156
0.0099696465
0.0099784868
0.0099909517
0.0099970518
0.0099993073
0.0099993726
0.0099993937
0.0099993795
0.0099993716
0.00999937
0.00999937
0.00999937
0.00999937
0.00999937
0.00999937
0.00999937
0.00999937
0.00999937
0.00999937
0.00999937
0.00999937
0.00999937
0.00999937
0.00999937
0.00999937
0.00999937
0.00999937
0.00999937
0.00999937
0.00999937
0.00999937
0.00999937
0.00999937
0.00999937
0.00999937
0.00999937
0.00999937
0.00999937
0.00999937
0.00999937
0.00999937
0.00999937
0.00999937
0.00999937
0.00999937
0.00999937
0.00999937
0.00999937
0.00999937
0.00999937
0.00999937
0.00999937
0.00999937
0.00999937
0.00999937
0.00999937
0.00999937
0.00999937
0.00999937
0.00999937
0.00999937
0.00999937
0.00999937
0.00999937
0.00999937
0.00999937
0.00999937
0.00999937
0.00999937
0.00999937
0.0099993724
0.010424114
0.010666368
0.0094981785
0.010129116
0.0099340772
0.0099746876
0.0099639799
0.0099573088
0.0099542575
0.0099659565
0.0099752719
0.0099893425
0.0099964703
0.0099992248
0.0099993718
0.0099993966
0.0099993811
0.009999372
0.00999937
0.00999937
0.00999937
0.00999937
0.00999937
0.00999937
0.00999937
0.00999937
0.00999937
0.00999937
0.00999937
0.00999937
0.00999937
0.00999937
0.00999937
0.00999937
0.00999937
0.00999937
0.00999937
0.00999937
0.00999937
0.00999937
0.00999937
0.00999937
0.00999937
0.00999937
0.00999937
0.00999937
0.00999937
0.00999937
0.00999937
0.00999937
0.00999937
0.00999937
0.00999937
0.00999937
0.00999937
0.00999937
0.00999937
0.00999937
0.00999937
0.00999937
0.00999937
0.00999937
0.00999937
0.00999937
0.00999937
0.00999937
0.00999937
0.00999937
0.00999937
0.00999937
0.00999937
0.00999937
0.00999937
0.00999937
0.00999937
0.00999937
0.00999937
0.00999937
0.00999937
0.0099993726
0.010366457
0.010774167
0.0094158743
0.010154679
0.0099238105
0.0099714904
0.0099607893
0.0099522552
0.0099487741
0.0099618453
0.009971671
0.0099875219
0.0099957989
0.0099991147
0.0099993711
0.0099993996
0.009999383
0.0099993724
0.00999937
0.00999937
0.00999937
0.00999937
0.00999937
0.00999937
0.00999937
0.00999937
0.00999937
0.00999937
0.00999937
0.00999937
0.00999937
0.00999937
0.00999937
0.00999937
0.00999937
0.00999937
0.00999937
0.00999937
0.00999937
0.00999937
0.00999937
0.00999937
0.00999937
0.00999937
0.00999937
0.00999937
0.00999937
0.00999937
0.00999937
0.00999937
0.00999937
0.00999937
0.00999937
0.00999937
0.00999937
0.00999937
0.00999937
0.00999937
0.00999937
0.00999937
0.00999937
0.00999937
0.00999937
0.00999937
0.00999937
0.00999937
0.00999937
0.00999937
0.00999937
0.00999937
0.00999937
0.00999937
0.00999937
0.00999937
0.00999937
0.00999937
0.00999937
0.00999937
0.00999937
0.0099993729
0.010296868
0.010896105
0.0093242678
0.010180816
0.0099130717
0.0099673338
0.0099574973
0.0099463875
0.0099424099
0.0099571743
0.0099676144
0.0099854749
0.0099950394
0.0099989783
0.0099993707
0.0099994029
0.009999385
0.0099993729
0.00999937
0.0099993699
0.00999937
0.00999937
0.00999937
0.00999937
0.00999937
0.00999937
0.00999937
0.00999937
0.00999937
0.00999937
0.00999937
0.00999937
0.00999937
0.00999937
0.00999937
0.00999937
0.00999937
0.00999937
0.00999937
0.00999937
0.00999937
0.00999937
0.00999937
0.00999937
0.00999937
0.00999937
0.00999937
0.00999937
0.00999937
0.00999937
0.00999937
0.00999937
0.00999937
0.00999937
0.00999937
0.00999937
0.00999937
0.00999937
0.00999937
0.00999937
0.00999937
0.00999937
0.00999937
0.00999937
0.00999937
0.00999937
0.00999937
0.00999937
0.00999937
0.00999937
0.00999937
0.00999937
0.00999937
0.00999937
0.00999937
0.00999937
0.00999937
0.00999937
0.00999937
0.0099993732
0.010220629
0.011046772
0.0092004463
0.010218405
0.009905737
0.0099620778
0.0099542178
0.0099397324
0.0099353106
0.0099519407
0.0099631626
0.0099832431
0.0099942102
0.0099988209
0.0099993712
0.0099994065
0.0099993872
0.0099993734
0.00999937
0.0099993699
0.00999937
0.00999937
0.00999937
0.00999937
0.00999937
0.00999937
0.00999937
0.00999937
0.00999937
0.00999937
0.00999937
0.00999937
0.00999937
0.00999937
0.00999937
0.00999937
0.00999937
0.00999937
0.00999937
0.00999937
0.00999937
0.00999937
0.00999937
0.00999937
0.00999937
0.00999937
0.00999937
0.00999937
0.00999937
0.00999937
0.00999937
0.00999937
0.00999937
0.00999937
0.00999937
0.00999937
0.00999937
0.00999937
0.00999937
0.00999937
0.00999937
0.00999937
0.00999937
0.00999937
0.00999937
0.00999937
0.00999937
0.00999937
0.00999937
0.00999937
0.00999937
0.00999937
0.00999937
0.00999937
0.00999937
0.00999937
0.00999937
0.00999937
0.00999937
0.0099993735
0.010175894
0.011224957
0.0090523292
0.010270928
0.0098858745
0.0099571216
0.0099497004
0.0099331573
0.009928219
0.0099466925
0.0099586486
0.0099809852
0.0099933675
0.0099986581
0.0099993728
0.0099994104
0.0099993893
0.0099993739
0.0099993701
0.0099993699
0.00999937
0.00999937
0.00999937
0.00999937
0.00999937
0.00999937
0.00999937
0.00999937
0.00999937
0.00999937
0.00999937
0.00999937
0.00999937
0.00999937
0.00999937
0.00999937
0.00999937
0.00999937
0.00999937
0.00999937
0.00999937
0.00999937
0.00999937
0.00999937
0.00999937
0.00999937
0.00999937
0.00999937
0.00999937
0.00999937
0.00999937
0.00999937
0.00999937
0.00999937
0.00999937
0.00999937
0.00999937
0.00999937
0.00999937
0.00999937
0.00999937
0.00999937
0.00999937
0.00999937
0.00999937
0.00999937
0.00999937
0.00999937
0.00999937
0.00999937
0.00999937
0.00999937
0.00999937
0.00999937
0.00999937
0.00999937
0.00999937
0.00999937
0.00999937
0.0099993738
0.010121775
0.011384108
0.0089210289
0.01031722
0.0098625669
0.0099542658
0.0099447579
0.0099267736
0.0099222924
0.0099417832
0.009954512
0.009978968
0.0099926332
0.0099985216
0.0099993762
0.0099994144
0.0099993912
0.0099993743
0.0099993701
0.0099993699
0.00999937
0.00999937
0.00999937
0.00999937
0.00999937
0.00999937
0.00999937
0.00999937
0.00999937
0.00999937
0.00999937
0.00999937
0.00999937
0.00999937
0.00999937
0.00999937
0.00999937
0.00999937
0.00999937
0.00999937
0.00999937
0.00999937
0.00999937
0.00999937
0.00999937
0.00999937
0.00999937
0.00999937
0.00999937
0.00999937
0.00999937
0.00999937
0.00999937
0.00999937
0.00999937
0.00999937
0.00999937
0.00999937
0.00999937
0.00999937
0.00999937
0.00999937
0.00999937
0.00999937
0.00999937
0.00999937
0.00999937
0.00999937
0.00999937
0.00999937
0.00999937
0.00999937
0.00999937
0.00999937
0.00999937
0.00999937
0.00999937
0.00999937
0.00999937
0.0099993741
0.010055785
0.011503164
0.0088046325
0.010364021
0.0098404922
0.0099525809
0.009939494
0.0099199327
0.0099180517
0.0099368391
0.00995118
0.0099775442
0.0099921673
0.0099984565
0.0099993815
0.0099994182
0.0099993924
0.0099993744
0.00999937
0.0099993699
0.00999937
0.00999937
0.00999937
0.00999937
0.00999937
0.00999937
0.00999937
0.00999937
0.00999937
0.00999937
0.00999937
0.00999937
0.00999937
0.00999937
0.00999937
0.00999937
0.00999937
0.00999937
0.00999937
0.00999937
0.00999937
0.00999937
0.00999937
0.00999937
0.00999937
0.00999937
0.00999937
0.00999937
0.00999937
0.00999937
0.00999937
0.00999937
0.00999937
0.00999937
0.00999937
0.00999937
0.00999937
0.00999937
0.00999937
0.00999937
0.00999937
0.00999937
0.00999937
0.00999937
0.00999937
0.00999937
0.00999937
0.00999937
0.00999937
0.00999937
0.00999937
0.00999937
0.00999937
0.00999937
0.00999937
0.00999937
0.00999937
0.00999937
0.00999937
0.0099993744
0.010040893
0.011569959
0.0086992984
0.010416349
0.0098148338
0.0099529574
0.0099339668
0.0099129866
0.0099172242
0.0099316193
0.0099492156
0.0099770552
0.0099921165
0.0099984997
0.0099993882
0.0099994212
0.0099993927
0.0099993742
0.00999937
0.0099993699
0.00999937
0.00999937
0.00999937
0.00999937
0.00999937
0.00999937
0.00999937
0.00999937
0.00999937
0.00999937
0.00999937
0.00999937
0.00999937
0.00999937
0.00999937
0.00999937
0.00999937
0.00999937
0.00999937
0.00999937
0.00999937
0.00999937
0.00999937
0.00999937
0.00999937
0.00999937
0.00999937
0.00999937
0.00999937
0.00999937
0.00999937
0.00999937
0.00999937
0.00999937
0.00999937
0.00999937
0.00999937
0.00999937
0.00999937
0.00999937
0.00999937
0.00999937
0.00999937
0.00999937
0.00999937
0.00999937
0.00999937
0.00999937
0.00999937
0.00999937
0.00999937
0.00999937
0.00999937
0.00999937
0.00999937
0.00999937
0.00999937
0.00999937
0.00999937
0.0099993747
0.0099733767
0.01164286
0.0086009735
0.010459836
0.0097966431
0.0099560718
0.0099268116
0.0099134185
0.0099159198
0.0099268455
0.0099490051
0.009977711
0.0099925413
0.0099986565
0.0099993947
0.0099994231
0.0099993918
0.0099993737
0.0099993699
0.0099993699
0.00999937
0.00999937
0.00999937
0.00999937
0.00999937
0.00999937
0.00999937
0.00999937
0.00999937
0.00999937
0.00999937
0.00999937
0.00999937
0.00999937
0.00999937
0.00999937
0.00999937
0.00999937
0.00999937
0.00999937
0.00999937
0.00999937
0.00999937
0.00999937
0.00999937
0.00999937
0.00999937
0.00999937
0.00999937
0.00999937
0.00999937
0.00999937
0.00999937
0.00999937
0.00999937
0.00999937
0.00999937
0.00999937
0.00999937
0.00999937
0.00999937
0.00999937
0.00999937
0.00999937
0.00999937
0.00999937
0.00999937
0.00999937
0.00999937
0.00999937
0.00999937
0.00999937
0.00999937
0.00999937
0.00999937
0.00999937
0.00999937
0.00999937
0.00999937
0.009999375
0.0097504007
0.01177825
0.0085380495
0.010456237
0.009801566
0.0099625613
0.0099153218
0.0099294159
0.0099067115
0.0099258386
0.0099507155
0.0099794061
0.009993366
0.0099988873
0.0099994
0.0099994227
0.0099993898
0.009999373
0.0099993699
0.0099993699
0.00999937
0.00999937
0.00999937
0.00999937
0.00999937
0.00999937
0.00999937
0.00999937
0.00999937
0.00999937
0.00999937
0.00999937
0.00999937
0.00999937
0.00999937
0.00999937
0.00999937
0.00999937
0.00999937
0.00999937
0.00999937
0.00999937
0.00999937
0.00999937
0.00999937
0.00999937
0.00999937
0.00999937
0.00999937
0.00999937
0.00999937
0.00999937
0.00999937
0.00999937
0.00999937
0.00999937
0.00999937
0.00999937
0.00999937
0.00999937
0.00999937
0.00999937
0.00999937
0.00999937
0.00999937
0.00999937
0.00999937
0.00999937
0.00999937
0.00999937
0.00999937
0.00999937
0.00999937
0.00999937
0.00999937
0.00999937
0.00999937
0.00999937
0.00999937
0.0099993753
0.0095452967
0.011862797
0.0085771788
0.010403941
0.0098173448
0.0099824723
0.0099108623
0.0099303134
0.0099045859
0.0099273076
0.0099536941
0.0099816004
0.0099943305
0.0099991126
0.009999404
0.0099994203
0.0099993871
0.0099993722
0.0099993698
0.0099993699
0.00999937
0.00999937
0.00999937
0.00999937
0.00999937
0.00999937
0.00999937
0.00999937
0.00999937
0.00999937
0.00999937
0.00999937
0.00999937
0.00999937
0.00999937
0.00999937
0.00999937
0.00999937
0.00999937
0.00999937
0.00999937
0.00999937
0.00999937
0.00999937
0.00999937
0.00999937
0.00999937
0.00999937
0.00999937
0.00999937
0.00999937
0.00999937
0.00999937
0.00999937
0.00999937
0.00999937
0.00999937
0.00999937
0.00999937
0.00999937
0.00999937
0.00999937
0.00999937
0.00999937
0.00999937
0.00999937
0.00999937
0.00999937
0.00999937
0.00999937
0.00999937
0.00999937
0.00999937
0.00999937
0.00999937
0.00999937
0.00999937
0.00999937
0.00999937
0.0099993755
0.0095051902
0.011721822
0.0087094758
0.010353491
0.0098314474
0.009998069
0.0099277411
0.0099143196
0.0099048156
0.0099296901
0.0099566654
0.0099835144
0.0099951024
0.0099992628
0.0099994064
0.0099994174
0.0099993846
0.0099993717
0.0099993698
0.0099993699
0.00999937
0.00999937
0.00999937
0.00999937
0.00999937
0.00999937
0.00999937
0.00999937
0.00999937
0.00999937
0.00999937
0.00999937
0.00999937
0.00999937
0.00999937
0.00999937
0.00999937
0.00999937
0.00999937
0.00999937
0.00999937
0.00999937
0.00999937
0.00999937
0.00999937
0.00999937
0.00999937
0.00999937
0.00999937
0.00999937
0.00999937
0.00999937
0.00999937
0.00999937
0.00999937
0.00999937
0.00999937
0.00999937
0.00999937
0.00999937
0.00999937
0.00999937
0.00999937
0.00999937
0.00999937
0.00999937
0.00999937
0.00999937
0.00999937
0.00999937
0.00999937
0.00999937
0.00999937
0.00999937
0.00999937
0.00999937
0.00999937
0.00999937
0.00999937
0.0099993757
0.0094962498
0.011447022
0.0089215405
0.010305614
0.0098661676
0.0099867501
0.0099329355
0.009910384
0.0099049449
0.0099315298
0.0099581842
0.0099843861
0.009995416
0.0099993122
0.0099994078
0.0099994159
0.0099993836
0.0099993715
0.0099993698
0.00999937
0.00999937
0.00999937
0.00999937
0.00999937
0.00999937
0.00999937
0.00999937
0.00999937
0.00999937
0.00999937
0.00999937
0.00999937
0.00999937
0.00999937
0.00999937
0.00999937
0.00999937
0.00999937
0.00999937
0.00999937
0.00999937
0.00999937
0.00999937
0.00999937
0.00999937
0.00999937
0.00999937
0.00999937
0.00999937
0.00999937
0.00999937
0.00999937
0.00999937
0.00999937
0.00999937
0.00999937
0.00999937
0.00999937
0.00999937
0.00999937
0.00999937
0.00999937
0.00999937
0.00999937
0.00999937
0.00999937
0.00999937
0.00999937
0.00999937
0.00999937
0.00999937
0.00999937
0.00999937
0.00999937
0.00999937
0.00999937
0.00999937
0.00999937
0.00999937
0.0099993758
0.0095138548
0.011356699
0.0090320046
0.010274078
0.0098893177
0.0099712629
0.009934893
0.0099109839
0.0099045251
0.0099310161
0.0099568912
0.0099833998
0.0099949706
0.0099992054
0.0099994057
0.0099994167
0.0099993856
0.0099993719
0.0099993699
0.0099993699
0.00999937
0.00999937
0.00999937
0.00999937
0.00999937
0.00999937
0.00999937
0.00999937
0.00999937
0.00999937
0.00999937
0.00999937
0.00999937
0.00999937
0.00999937
0.00999937
0.00999937
0.00999937
0.00999937
0.00999937
0.00999937
0.00999937
0.00999937
0.00999937
0.00999937
0.00999937
0.00999937
0.00999937
0.00999937
0.00999937
0.00999937
0.00999937
0.00999937
0.00999937
0.00999937
0.00999937
0.00999937
0.00999937
0.00999937
0.00999937
0.00999937
0.00999937
0.00999937
0.00999937
0.00999937
0.00999937
0.00999937
0.00999937
0.00999937
0.00999937
0.00999937
0.00999937
0.00999937
0.00999937
0.00999937
0.00999937
0.00999937
0.00999937
0.00999937
0.0099993758
0.010894484
0.0096464009
0.010165423
0.0099984007
0.010024454
0.010029057
0.010032029
0.010025119
0.010020754
0.010010807
0.010004163
0.010000795
0.0099995117
0.0099993527
0.0099993621
0.009999368
0.00999937
0.0099993701
0.00999937
0.00999937
0.00999937
0.00999937
0.00999937
0.00999937
0.00999937
0.00999937
0.00999937
0.00999937
0.00999937
0.00999937
0.00999937
0.00999937
0.00999937
0.00999937
0.00999937
0.00999937
0.00999937
0.00999937
0.00999937
0.00999937
0.00999937
0.00999937
0.00999937
0.00999937
0.00999937
0.00999937
0.00999937
0.00999937
0.00999937
0.00999937
0.00999937
0.00999937
0.00999937
0.00999937
0.00999937
0.00999937
0.00999937
0.00999937
0.00999937
0.00999937
0.00999937
0.00999937
0.00999937
0.00999937
0.00999937
0.00999937
0.00999937
0.00999937
0.00999937
0.00999937
0.00999937
0.00999937
0.00999937
0.00999937
0.00999937
0.00999937
0.00999937
0.00999937
0.00999937
0.00999937
0.010891696
0.0096620315
0.010167819
0.0099905942
0.010023827
0.010028733
0.010032315
0.010025392
0.010021096
0.01001138
0.010004759
0.010001102
0.0099995901
0.0099993554
0.0099993607
0.0099993673
0.0099993699
0.0099993701
0.00999937
0.00999937
0.00999937
0.00999937
0.00999937
0.00999937
0.00999937
0.00999937
0.00999937
0.00999937
0.00999937
0.00999937
0.00999937
0.00999937
0.00999937
0.00999937
0.00999937
0.00999937
0.00999937
0.00999937
0.00999937
0.00999937
0.00999937
0.00999937
0.00999937
0.00999937
0.00999937
0.00999937
0.00999937
0.00999937
0.00999937
0.00999937
0.00999937
0.00999937
0.00999937
0.00999937
0.00999937
0.00999937
0.00999937
0.00999937
0.00999937
0.00999937
0.00999937
0.00999937
0.00999937
0.00999937
0.00999937
0.00999937
0.00999937
0.00999937