/*--------------------------------*- C++ -*----------------------------------*\
| =========                 |                                                 |
| \\      /  F ield         | OpenFOAM: The Open Source CFD Toolbox           |
|  \\    /   O peration     | Version:  2406                                  |
|   \\  /    A nd           | Website:  www.openfoam.com                      |
|    \\/     M anipulation  |                                                 |
\*---------------------------------------------------------------------------*/
FoamFile
{
    version     2.0;
    format      ascii;
    arch        "LSB;label=32;scalar=64";
    class       volScalarField;
    location    "7e-05";
    object      Ma;
}
// * * * * * * * * * * * * * * * * * * * * * * * * * * * * * * * * * * * * * //

dimensions      [0 0 0 0 0 0 0];

internalField   nonuniform List<scalar> 
16000
(
0.058408048
0.058270558
0.058304659
0.058185771
0.058158464
0.058051696
0.057989928
0.057868645
0.057797048
0.057736761
0.057715373
0.057707236
0.057706203
0.057706005
0.057706058
0.057706067
0.057706072
0.057706072
0.057706072
0.057706072
0.057706072
0.057706072
0.057706072
0.057706072
0.057706072
0.057706072
0.057706072
0.057706072
0.057706072
0.057706072
0.057706072
0.057706072
0.057706072
0.057706072
0.057706072
0.057706072
0.057706072
0.057706072
0.057706072
0.057706072
0.057706072
0.057706072
0.057706072
0.057706072
0.057706072
0.057706072
0.057706072
0.057706072
0.057706072
0.057706072
0.057706072
0.057706072
0.057706072
0.057706072
0.057706072
0.057706072
0.057706072
0.057706072
0.057706072
0.057706072
0.057706072
0.057706072
0.057706072
0.057706072
0.057706072
0.057706072
0.057706072
0.057706072
0.057706072
0.057706072
0.057706072
0.057706072
0.057706072
0.057706072
0.057706072
0.057706072
0.057706072
0.057706072
0.057706072
0.057706072
0.05824702
0.058332831
0.05827944
0.058221245
0.058146221
0.05804698
0.057965718
0.057840168
0.057769517
0.057719451
0.057707447
0.05770487
0.057705692
0.057705986
0.057706077
0.057706076
0.057706073
0.057706072
0.057706072
0.057706072
0.057706072
0.057706072
0.057706072
0.057706072
0.057706072
0.057706072
0.057706072
0.057706072
0.057706072
0.057706072
0.057706072
0.057706072
0.057706072
0.057706072
0.057706072
0.057706072
0.057706072
0.057706072
0.057706072
0.057706072
0.057706072
0.057706072
0.057706072
0.057706072
0.057706072
0.057706072
0.057706072
0.057706072
0.057706072
0.057706072
0.057706072
0.057706072
0.057706072
0.057706072
0.057706072
0.057706072
0.057706072
0.057706072
0.057706072
0.057706072
0.057706072
0.057706072
0.057706072
0.057706072
0.057706072
0.057706072
0.057706072
0.057706072
0.057706072
0.057706072
0.057706072
0.057706072
0.057706072
0.057706072
0.057706072
0.057706072
0.057706072
0.057706072
0.057706072
0.057706072
0.05799284
0.058357323
0.058278031
0.058230173
0.058143645
0.058038006
0.05794683
0.057808439
0.057736985
0.057692181
0.057691846
0.057698184
0.057704036
0.05770575
0.057706098
0.057706095
0.057706078
0.057706072
0.057706072
0.057706072
0.057706072
0.057706072
0.057706072
0.057706072
0.057706072
0.057706072
0.057706072
0.057706072
0.057706072
0.057706072
0.057706072
0.057706072
0.057706072
0.057706072
0.057706072
0.057706072
0.057706072
0.057706072
0.057706072
0.057706072
0.057706072
0.057706072
0.057706072
0.057706072
0.057706072
0.057706072
0.057706072
0.057706072
0.057706072
0.057706072
0.057706072
0.057706072
0.057706072
0.057706072
0.057706072
0.057706072
0.057706072
0.057706072
0.057706072
0.057706072
0.057706072
0.057706072
0.057706072
0.057706072
0.057706072
0.057706072
0.057706072
0.057706072
0.057706072
0.057706072
0.057706072
0.057706072
0.057706072
0.057706072
0.057706072
0.057706072
0.057706072
0.057706072
0.057706072
0.057706072
0.057624843
0.058362138
0.05827808
0.058217788
0.058138053
0.058024789
0.057929428
0.057769669
0.057694682
0.057652926
0.057668306
0.057687937
0.057701429
0.05770535
0.057706124
0.057706121
0.057706086
0.057706073
0.057706071
0.057706072
0.057706072
0.057706072
0.057706072
0.057706072
0.057706072
0.057706072
0.057706072
0.057706072
0.057706072
0.057706072
0.057706072
0.057706072
0.057706072
0.057706072
0.057706072
0.057706072
0.057706072
0.057706072
0.057706072
0.057706072
0.057706072
0.057706072
0.057706072
0.057706072
0.057706072
0.057706072
0.057706072
0.057706072
0.057706072
0.057706072
0.057706072
0.057706072
0.057706072
0.057706072
0.057706072
0.057706072
0.057706072
0.057706072
0.057706072
0.057706072
0.057706072
0.057706072
0.057706072
0.057706072
0.057706072
0.057706072
0.057706072
0.057706072
0.057706072
0.057706072
0.057706072
0.057706072
0.057706072
0.057706072
0.057706072
0.057706072
0.057706072
0.057706072
0.057706072
0.057706072
0.057165234
0.058369737
0.058268093
0.058205639
0.058126619
0.058009894
0.057904404
0.057729048
0.057643468
0.057602977
0.057636533
0.05767348
0.057697499
0.057704689
0.057706142
0.057706154
0.057706097
0.057706074
0.057706071
0.057706071
0.057706072
0.057706072
0.057706072
0.057706072
0.057706072
0.057706072
0.057706072
0.057706072
0.057706072
0.057706072
0.057706072
0.057706072
0.057706072
0.057706072
0.057706072
0.057706072
0.057706072
0.057706072
0.057706072
0.057706072
0.057706072
0.057706072
0.057706072
0.057706072
0.057706072
0.057706072
0.057706072
0.057706072
0.057706072
0.057706072
0.057706072
0.057706072
0.057706072
0.057706072
0.057706072
0.057706072
0.057706072
0.057706072
0.057706072
0.057706072
0.057706072
0.057706072
0.057706072
0.057706072
0.057706072
0.057706072
0.057706072
0.057706072
0.057706072
0.057706072
0.057706072
0.057706072
0.057706072
0.057706072
0.057706072
0.057706072
0.057706072
0.057706072
0.057706072
0.057706072
0.056610689
0.058390384
0.058255827
0.058197206
0.058110876
0.057994108
0.057873542
0.057681489
0.057581676
0.057540998
0.057594857
0.057653447
0.057691718
0.057703618
0.057706138
0.057706197
0.057706113
0.057706075
0.057706071
0.057706071
0.057706072
0.057706072
0.057706072
0.057706072
0.057706072
0.057706072
0.057706072
0.057706072
0.057706072
0.057706072
0.057706072
0.057706072
0.057706072
0.057706072
0.057706072
0.057706072
0.057706072
0.057706072
0.057706072
0.057706072
0.057706072
0.057706072
0.057706072
0.057706072
0.057706072
0.057706072
0.057706072
0.057706072
0.057706072
0.057706072
0.057706072
0.057706072
0.057706072
0.057706072
0.057706072
0.057706072
0.057706072
0.057706072
0.057706072
0.057706072
0.057706072
0.057706072
0.057706072
0.057706072
0.057706072
0.057706072
0.057706072
0.057706072
0.057706072
0.057706072
0.057706072
0.057706072
0.057706072
0.057706072
0.057706072
0.057706072
0.057706072
0.057706072
0.057706072
0.057706072
0.055992569
0.058417969
0.058242392
0.05819007
0.058090259
0.057970884
0.057837493
0.057625919
0.05750863
0.057465429
0.057541504
0.057626547
0.057683549
0.057701987
0.057706093
0.05770625
0.057706136
0.057706078
0.057706071
0.057706071
0.057706072
0.057706072
0.057706072
0.057706072
0.057706072
0.057706072
0.057706072
0.057706072
0.057706072
0.057706072
0.057706072
0.057706072
0.057706072
0.057706072
0.057706072
0.057706072
0.057706072
0.057706072
0.057706072
0.057706072
0.057706072
0.057706072
0.057706072
0.057706072
0.057706072
0.057706072
0.057706072
0.057706072
0.057706072
0.057706072
0.057706072
0.057706072
0.057706072
0.057706072
0.057706072
0.057706072
0.057706072
0.057706072
0.057706072
0.057706072
0.057706072
0.057706072
0.057706072
0.057706072
0.057706072
0.057706072
0.057706072
0.057706072
0.057706072
0.057706072
0.057706072
0.057706072
0.057706072
0.057706072
0.057706072
0.057706072
0.057706072
0.057706072
0.057706072
0.057706072
0.055339419
0.058447983
0.058225472
0.058181451
0.058063257
0.057942312
0.05780006
0.057557665
0.057423822
0.057374936
0.057474799
0.057591461
0.057672409
0.057699619
0.057705984
0.057706314
0.057706168
0.057706083
0.057706071
0.057706071
0.057706072
0.057706072
0.057706072
0.057706072
0.057706072
0.057706072
0.057706072
0.057706072
0.057706072
0.057706072
0.057706072
0.057706072
0.057706072
0.057706072
0.057706072
0.057706072
0.057706072
0.057706072
0.057706072
0.057706072
0.057706072
0.057706072
0.057706072
0.057706072
0.057706072
0.057706072
0.057706072
0.057706072
0.057706072
0.057706072
0.057706072
0.057706072
0.057706072
0.057706072
0.057706072
0.057706072
0.057706072
0.057706072
0.057706072
0.057706072
0.057706072
0.057706072
0.057706072
0.057706072
0.057706072
0.057706072
0.057706072
0.057706072
0.057706072
0.057706072
0.057706072
0.057706072
0.057706072
0.057706072
0.057706072
0.057706072
0.057706072
0.057706072
0.057706072
0.057706072
0.05467578
0.058484133
0.058204765
0.058172652
0.05803093
0.057911391
0.057756636
0.057478393
0.057326484
0.057268318
0.057392924
0.057546671
0.057657607
0.0576963
0.057705779
0.057706389
0.057706209
0.057706089
0.057706071
0.057706071
0.057706071
0.057706072
0.057706072
0.057706072
0.057706072
0.057706072
0.057706072
0.057706072
0.057706072
0.057706072
0.057706072
0.057706072
0.057706072
0.057706072
0.057706072
0.057706072
0.057706072
0.057706072
0.057706072
0.057706072
0.057706072
0.057706072
0.057706072
0.057706072
0.057706072
0.057706072
0.057706072
0.057706072
0.057706072
0.057706072
0.057706072
0.057706072
0.057706072
0.057706072
0.057706072
0.057706072
0.057706072
0.057706072
0.057706072
0.057706072
0.057706072
0.057706072
0.057706072
0.057706072
0.057706072
0.057706072
0.057706072
0.057706072
0.057706072
0.057706072
0.057706072
0.057706072
0.057706072
0.057706072
0.057706072
0.057706072
0.057706072
0.057706072
0.057706072
0.057706072
0.054025161
0.058531736
0.058175572
0.058165758
0.057991489
0.057876434
0.057705565
0.05738848
0.057215349
0.057143531
0.057293596
0.057490345
0.057638301
0.057691765
0.057705436
0.057706474
0.057706261
0.057706098
0.057706072
0.057706071
0.057706071
0.057706072
0.057706072
0.057706072
0.057706072
0.057706072
0.057706072
0.057706072
0.057706072
0.057706072
0.057706072
0.057706072
0.057706072
0.057706072
0.057706072
0.057706072
0.057706072
0.057706072
0.057706072
0.057706072
0.057706072
0.057706072
0.057706072
0.057706072
0.057706072
0.057706072
0.057706072
0.057706072
0.057706072
0.057706072
0.057706072
0.057706072
0.057706072
0.057706072
0.057706072
0.057706072
0.057706072
0.057706072
0.057706072
0.057706072
0.057706072
0.057706072
0.057706072
0.057706072
0.057706072
0.057706072
0.057706072
0.057706072
0.057706072
0.057706072
0.057706072
0.057706072
0.057706072
0.057706072
0.057706072
0.057706072
0.057706072
0.057706072
0.057706072
0.057706072
0.053436485
0.05859887
0.058137708
0.058163672
0.057945655
0.057836869
0.05764626
0.057288041
0.0570882
0.056998186
0.05717404
0.057420229
0.057613453
0.057685685
0.057704905
0.05770657
0.057706327
0.057706111
0.057706073
0.05770607
0.057706071
0.057706072
0.057706072
0.057706072
0.057706072
0.057706072
0.057706072
0.057706072
0.057706072
0.057706072
0.057706072
0.057706072
0.057706072
0.057706072
0.057706072
0.057706072
0.057706072
0.057706072
0.057706072
0.057706072
0.057706072
0.057706072
0.057706072
0.057706072
0.057706072
0.057706072
0.057706072
0.057706072
0.057706072
0.057706072
0.057706072
0.057706072
0.057706072
0.057706072
0.057706072
0.057706072
0.057706072
0.057706072
0.057706072
0.057706072
0.057706072
0.057706072
0.057706072
0.057706072
0.057706072
0.057706072
0.057706072
0.057706072
0.057706072
0.057706072
0.057706072
0.057706072
0.057706072
0.057706072
0.057706072
0.057706072
0.057706072
0.057706072
0.057706072
0.057706072
0.052960729
0.058678107
0.058096765
0.058158601
0.057890579
0.057792436
0.05757744
0.057175764
0.056943063
0.056829388
0.057030577
0.05733341
0.057581721
0.057677633
0.057704116
0.057706673
0.057706411
0.057706127
0.057706074
0.05770607
0.057706071
0.057706072
0.057706072
0.057706072
0.057706072
0.057706072
0.057706072
0.057706072
0.057706072
0.057706072
0.057706072
0.057706072
0.057706072
0.057706072
0.057706072
0.057706072
0.057706072
0.057706072
0.057706072
0.057706072
0.057706072
0.057706072
0.057706072
0.057706072
0.057706072
0.057706072
0.057706072
0.057706072
0.057706072
0.057706072
0.057706072
0.057706072
0.057706072
0.057706072
0.057706072
0.057706072
0.057706072
0.057706072
0.057706072
0.057706072
0.057706072
0.057706072
0.057706072
0.057706072
0.057706072
0.057706072
0.057706072
0.057706072
0.057706072
0.057706072
0.057706072
0.057706072
0.057706072
0.057706072
0.057706072
0.057706072
0.057706072
0.057706072
0.057706072
0.057706072
0.052549503
0.058759227
0.058056834
0.058145654
0.05782542
0.057742371
0.057497067
0.05704854
0.056776546
0.05663332
0.056858546
0.057226178
0.057541379
0.057667057
0.057702978
0.057706781
0.057706514
0.05770615
0.057706076
0.05770607
0.057706071
0.057706072
0.057706072
0.057706072
0.057706072
0.057706072
0.057706072
0.057706072
0.057706072
0.057706072
0.057706072
0.057706072
0.057706072
0.057706072
0.057706072
0.057706072
0.057706072
0.057706072
0.057706072
0.057706072
0.057706072
0.057706072
0.057706072
0.057706072
0.057706072
0.057706072
0.057706072
0.057706072
0.057706072
0.057706072
0.057706072
0.057706072
0.057706072
0.057706072
0.057706072
0.057706072
0.057706072
0.057706072
0.057706072
0.057706072
0.057706072
0.057706072
0.057706072
0.057706072
0.057706072
0.057706072
0.057706072
0.057706072
0.057706072
0.057706072
0.057706072
0.057706072
0.057706072
0.057706072
0.057706072
0.057706072
0.057706072
0.057706072
0.057706072
0.057706072
0.052193377
0.058862647
0.058013911
0.05813738
0.057750637
0.057683923
0.057401395
0.056900721
0.056584801
0.056403353
0.056651674
0.057093595
0.057490131
0.057653217
0.057701368
0.05770689
0.057706644
0.05770618
0.057706078
0.057706069
0.057706071
0.057706072
0.057706072
0.057706072
0.057706072
0.057706072
0.057706072
0.057706072
0.057706072
0.057706072
0.057706072
0.057706072
0.057706072
0.057706072
0.057706072
0.057706072
0.057706072
0.057706072
0.057706072
0.057706072
0.057706072
0.057706072
0.057706072
0.057706072
0.057706072
0.057706072
0.057706072
0.057706072
0.057706072
0.057706072
0.057706072
0.057706072
0.057706072
0.057706072
0.057706072
0.057706072
0.057706072
0.057706072
0.057706072
0.057706072
0.057706072
0.057706072
0.057706072
0.057706072
0.057706072
0.057706072
0.057706072
0.057706072
0.057706072
0.057706072
0.057706072
0.057706072
0.057706072
0.057706072
0.057706072
0.057706072
0.057706072
0.057706072
0.057706072
0.057706072
0.0519605
0.058998517
0.057960803
0.05813823
0.057661843
0.057612794
0.057284383
0.056725646
0.056360917
0.056131551
0.056401572
0.056929115
0.057424921
0.057635128
0.057699118
0.057706991
0.057706804
0.057706219
0.057706082
0.057706068
0.057706071
0.057706072
0.057706072
0.057706072
0.057706072
0.057706072
0.057706072
0.057706072
0.057706072
0.057706072
0.057706072
0.057706072
0.057706072
0.057706072
0.057706072
0.057706072
0.057706072
0.057706072
0.057706072
0.057706072
0.057706072
0.057706072
0.057706072
0.057706072
0.057706072
0.057706072
0.057706072
0.057706072
0.057706072
0.057706072
0.057706072
0.057706072
0.057706072
0.057706072
0.057706072
0.057706072
0.057706072
0.057706072
0.057706072
0.057706072
0.057706072
0.057706072
0.057706072
0.057706072
0.057706072
0.057706072
0.057706072
0.057706072
0.057706072
0.057706072
0.057706072
0.057706072
0.057706072
0.057706072
0.057706072
0.057706072
0.057706072
0.057706072
0.057706072
0.057706072
0.05194224
0.059176363
0.057906401
0.058143917
0.057555605
0.057530681
0.057143535
0.056520042
0.056097488
0.055807667
0.056097135
0.056724074
0.057341696
0.057611477
0.057696001
0.057707076
0.057707005
0.05770627
0.057706087
0.057706068
0.057706071
0.057706071
0.057706072
0.057706072
0.057706072
0.057706072
0.057706072
0.057706072
0.057706072
0.057706072
0.057706072
0.057706072
0.057706072
0.057706072
0.057706072
0.057706072
0.057706072
0.057706072
0.057706072
0.057706072
0.057706072
0.057706072
0.057706072
0.057706072
0.057706072
0.057706072
0.057706072
0.057706072
0.057706072
0.057706072
0.057706072
0.057706072
0.057706072
0.057706072
0.057706072
0.057706072
0.057706072
0.057706072
0.057706072
0.057706072
0.057706072
0.057706072
0.057706072
0.057706072
0.057706072
0.057706072
0.057706072
0.057706072
0.057706072
0.057706072
0.057706072
0.057706072
0.057706072
0.057706072
0.057706072
0.057706072
0.057706072
0.057706072
0.057706072
0.057706072
0.052011721
0.05934394
0.05784436
0.058152773
0.057453404
0.057452834
0.056995032
0.05629144
0.055792781
0.055420027
0.055723811
0.056467114
0.057235184
0.057580569
0.057691723
0.057707128
0.057707255
0.057706337
0.057706094
0.057706067
0.05770607
0.057706071
0.057706072
0.057706072
0.057706072
0.057706072
0.057706072
0.057706072
0.057706072
0.057706072
0.057706072
0.057706072
0.057706072
0.057706072
0.057706072
0.057706072
0.057706072
0.057706072
0.057706072
0.057706072
0.057706072
0.057706072
0.057706072
0.057706072
0.057706072
0.057706072
0.057706072
0.057706072
0.057706072
0.057706072
0.057706072
0.057706072
0.057706072
0.057706072
0.057706072
0.057706072
0.057706072
0.057706072
0.057706072
0.057706072
0.057706072
0.057706072
0.057706072
0.057706072
0.057706072
0.057706072
0.057706072
0.057706072
0.057706072
0.057706072
0.057706072
0.057706072
0.057706072
0.057706072
0.057706072
0.057706072
0.057706072
0.057706072
0.057706072
0.057706072
0.052415309
0.059688164
0.057884851
0.058217019
0.057377
0.057402503
0.056854917
0.056054682
0.055443695
0.054952281
0.055260113
0.056142904
0.057098671
0.057540358
0.057685945
0.057707132
0.057707567
0.057706423
0.057706104
0.057706066
0.05770607
0.057706071
0.057706072
0.057706072
0.057706072
0.057706072
0.057706072
0.057706072
0.057706072
0.057706072
0.057706072
0.057706072
0.057706072
0.057706072
0.057706072
0.057706072
0.057706072
0.057706072
0.057706072
0.057706072
0.057706072
0.057706072
0.057706072
0.057706072
0.057706072
0.057706072
0.057706072
0.057706072
0.057706072
0.057706072
0.057706072
0.057706072
0.057706072
0.057706072
0.057706072
0.057706072
0.057706072
0.057706072
0.057706072
0.057706072
0.057706072
0.057706072
0.057706072
0.057706072
0.057706072
0.057706072
0.057706072
0.057706072
0.057706072
0.057706072
0.057706072
0.057706072
0.057706072
0.057706072
0.057706072
0.057706072
0.057706072
0.057706072
0.057706072
0.057706072
0.053053908
0.060003459
0.057700971
0.058317251
0.057259808
0.057403268
0.056725363
0.055765497
0.055012503
0.054362877
0.054671104
0.055730522
0.056924049
0.057488678
0.057678355
0.057707088
0.057707957
0.057706533
0.057706117
0.057706065
0.057706069
0.057706071
0.057706072
0.057706072
0.057706072
0.057706072
0.057706072
0.057706072
0.057706072
0.057706072
0.057706072
0.057706072
0.057706072
0.057706072
0.057706072
0.057706072
0.057706072
0.057706072
0.057706072
0.057706072
0.057706072
0.057706072
0.057706072
0.057706072
0.057706072
0.057706072
0.057706072
0.057706072
0.057706072
0.057706072
0.057706072
0.057706072
0.057706072
0.057706072
0.057706072
0.057706072
0.057706072
0.057706072
0.057706072
0.057706072
0.057706072
0.057706072
0.057706072
0.057706072
0.057706072
0.057706072
0.057706072
0.057706072
0.057706072
0.057706072
0.057706072
0.057706072
0.057706072
0.057706072
0.057706072
0.057706072
0.057706072
0.057706072
0.057706072
0.057706072
0.053852661
0.060644831
0.057716886
0.05874347
0.057342906
0.057348687
0.05648365
0.055247193
0.054385433
0.053568978
0.053909022
0.055204376
0.056702926
0.057423579
0.057668774
0.057707022
0.057708439
0.057706669
0.057706133
0.057706063
0.057706069
0.057706071
0.057706072
0.057706072
0.057706072
0.057706072
0.057706072
0.057706072
0.057706072
0.057706072
0.057706072
0.057706072
0.057706072
0.057706072
0.057706072
0.057706072
0.057706072
0.057706072
0.057706072
0.057706072
0.057706072
0.057706072
0.057706072
0.057706072
0.057706072
0.057706072
0.057706072
0.057706072
0.057706072
0.057706072
0.057706072
0.057706072
0.057706072
0.057706072
0.057706072
0.057706072
0.057706072
0.057706072
0.057706072
0.057706072
0.057706072
0.057706072
0.057706072
0.057706072
0.057706072
0.057706072
0.057706072
0.057706072
0.057706072
0.057706072
0.057706072
0.057706072
0.057706072
0.057706072
0.057706072
0.057706072
0.057706072
0.057706072
0.057706072
0.057706072
0.055974672
0.061378992
0.058075995
0.05876502
0.05719184
0.056834549
0.055851661
0.054400261
0.053423839
0.052484499
0.052922684
0.054541734
0.056430299
0.057344466
0.057657368
0.057706992
0.057709021
0.057706827
0.05770615
0.057706062
0.057706068
0.057706071
0.057706072
0.057706072
0.057706072
0.057706072
0.057706072
0.057706072
0.057706072
0.057706072
0.057706072
0.057706072
0.057706072
0.057706072
0.057706072
0.057706072
0.057706072
0.057706072
0.057706072
0.057706072
0.057706072
0.057706072
0.057706072
0.057706072
0.057706072
0.057706072
0.057706072
0.057706072
0.057706072
0.057706072
0.057706072
0.057706072
0.057706072
0.057706072
0.057706072
0.057706072
0.057706072
0.057706072
0.057706072
0.057706072
0.057706072
0.057706072
0.057706072
0.057706072
0.057706072
0.057706072
0.057706072
0.057706072
0.057706072
0.057706072
0.057706072
0.057706072
0.057706072
0.057706072
0.057706072
0.057706072
0.057706072
0.057706072
0.057706072
0.057706072
0.056764634
0.061370799
0.057843436
0.058034621
0.056522423
0.056065478
0.054927523
0.053223459
0.052046975
0.051008898
0.051658855
0.05373485
0.0561127
0.057255412
0.057645244
0.057707128
0.057709687
0.057706997
0.057706168
0.057706059
0.057706067
0.057706071
0.057706072
0.057706072
0.057706072
0.057706072
0.057706072
0.057706072
0.057706072
0.057706072
0.057706072
0.057706072
0.057706072
0.057706072
0.057706072
0.057706072
0.057706072
0.057706072
0.057706072
0.057706072
0.057706072
0.057706072
0.057706072
0.057706072
0.057706072
0.057706072
0.057706072
0.057706072
0.057706072
0.057706072
0.057706072
0.057706072
0.057706072
0.057706072
0.057706072
0.057706072
0.057706072
0.057706072
0.057706072
0.057706072
0.057706072
0.057706072
0.057706072
0.057706072
0.057706072
0.057706072
0.057706072
0.057706072
0.057706072
0.057706072
0.057706072
0.057706072
0.057706072
0.057706072
0.057706072
0.057706072
0.057706072
0.057706072
0.057706072
0.057706072
0.057272154
0.060774016
0.057493152
0.057076524
0.055607658
0.055058684
0.05365138
0.051479308
0.050081254
0.048992671
0.050075313
0.052804967
0.0557772
0.057167665
0.057634986
0.057707646
0.057710387
0.057707152
0.05770618
0.057706057
0.057706066
0.057706071
0.057706072
0.057706072
0.057706072
0.057706072
0.057706072
0.057706072
0.057706072
0.057706072
0.057706072
0.057706072
0.057706072
0.057706072
0.057706072
0.057706072
0.057706072
0.057706072
0.057706072
0.057706072
0.057706072
0.057706072
0.057706072
0.057706072
0.057706072
0.057706072
0.057706072
0.057706072
0.057706072
0.057706072
0.057706072
0.057706072
0.057706072
0.057706072
0.057706072
0.057706072
0.057706072
0.057706072
0.057706072
0.057706072
0.057706072
0.057706072
0.057706072
0.057706072
0.057706072
0.057706072
0.057706072
0.057706072
0.057706072
0.057706072
0.057706072
0.057706072
0.057706072
0.057706072
0.057706072
0.057706072
0.057706072
0.057706072
0.057706072
0.057706072
0.056318003
0.059991104
0.056877006
0.055539125
0.054056507
0.05332174
0.051567246
0.048801313
0.047338177
0.046303638
0.048198406
0.051830643
0.055475407
0.057099668
0.057630221
0.057708796
0.057711037
0.057707257
0.057706184
0.057706054
0.057706066
0.057706071
0.057706072
0.057706072
0.057706072
0.057706072
0.057706072
0.057706072
0.057706072
0.057706072
0.057706072
0.057706072
0.057706072
0.057706072
0.057706072
0.057706072
0.057706072
0.057706072
0.057706072
0.057706072
0.057706072
0.057706072
0.057706072
0.057706072
0.057706072
0.057706072
0.057706072
0.057706072
0.057706072
0.057706072
0.057706072
0.057706072
0.057706072
0.057706072
0.057706072
0.057706072
0.057706072
0.057706072
0.057706072
0.057706072
0.057706072
0.057706072
0.057706072
0.057706072
0.057706072
0.057706072
0.057706072
0.057706072
0.057706072
0.057706072
0.057706072
0.057706072
0.057706072
0.057706072
0.057706072
0.057706072
0.057706072
0.057706072
0.057706072
0.057706072
0.05459894
0.059059322
0.054899363
0.053038437
0.051118289
0.050516418
0.048276549
0.044926687
0.043652219
0.042880834
0.046159671
0.050944697
0.055270889
0.057069867
0.057633794
0.057710597
0.057711511
0.057707274
0.057706174
0.057706051
0.057706066
0.057706071
0.057706072
0.057706072
0.057706072
0.057706072
0.057706072
0.057706072
0.057706072
0.057706072
0.057706072
0.057706072
0.057706072
0.057706072
0.057706072
0.057706072
0.057706072
0.057706072
0.057706072
0.057706072
0.057706072
0.057706072
0.057706072
0.057706072
0.057706072
0.057706072
0.057706072
0.057706072
0.057706072
0.057706072
0.057706072
0.057706072
0.057706072
0.057706072
0.057706072
0.057706072
0.057706072
0.057706072
0.057706072
0.057706072
0.057706072
0.057706072
0.057706072
0.057706072
0.057706072
0.057706072
0.057706072
0.057706072
0.057706072
0.057706072
0.057706072
0.057706072
0.057706072
0.057706072
0.057706072
0.057706072
0.057706072
0.057706072
0.057706072
0.057706072
0.053962369
0.056100272
0.051209
0.048407754
0.046420519
0.04654327
0.043317075
0.039951113
0.038862878
0.038863604
0.0442554
0.050327319
0.055218114
0.057089077
0.057645685
0.057712688
0.057711679
0.057707185
0.057706151
0.05770605
0.057706066
0.057706071
0.057706072
0.057706072
0.057706072
0.057706072
0.057706072
0.057706072
0.057706072
0.057706072
0.057706072
0.057706072
0.057706072
0.057706072
0.057706072
0.057706072
0.057706072
0.057706072
0.057706072
0.057706072
0.057706072
0.057706072
0.057706072
0.057706072
0.057706072
0.057706072
0.057706072
0.057706072
0.057706072
0.057706072
0.057706072
0.057706072
0.057706072
0.057706072
0.057706072
0.057706072
0.057706072
0.057706072
0.057706072
0.057706072
0.057706072
0.057706072
0.057706072
0.057706072
0.057706072
0.057706072
0.057706072
0.057706072
0.057706072
0.057706072
0.057706072
0.057706072
0.057706072
0.057706072
0.057706072
0.057706072
0.057706072
0.057706072
0.057706072
0.057706072
0.050820155
0.04811086
0.045718465
0.04075119
0.040177403
0.041155773
0.036725516
0.033848241
0.033312691
0.034698493
0.0428042
0.050058238
0.055301001
0.057143228
0.057661073
0.05771443
0.057711531
0.05770703
0.057706125
0.057706049
0.057706067
0.057706071
0.057706072
0.057706072
0.057706072
0.057706072
0.057706072
0.057706072
0.057706072
0.057706072
0.057706072
0.057706072
0.057706072
0.057706072
0.057706072
0.057706072
0.057706072
0.057706072
0.057706072
0.057706072
0.057706072
0.057706072
0.057706072
0.057706072
0.057706072
0.057706072
0.057706072
0.057706072
0.057706072
0.057706072
0.057706072
0.057706072
0.057706072
0.057706072
0.057706072
0.057706072
0.057706072
0.057706072
0.057706072
0.057706072
0.057706072
0.057706072
0.057706072
0.057706072
0.057706072
0.057706072
0.057706072
0.057706072
0.057706072
0.057706072
0.057706072
0.057706072
0.057706072
0.057706072
0.057706072
0.057706072
0.057706072
0.057706072
0.057706072
0.057706072
0.042723989
0.036245606
0.036986926
0.031090725
0.033069625
0.034848717
0.029276323
0.026715274
0.027680652
0.030871994
0.041864872
0.049996551
0.0554188
0.057196517
0.057673224
0.057715449
0.057711256
0.057706888
0.057706105
0.05770605
0.057706067
0.057706071
0.057706072
0.057706072
0.057706072
0.057706072
0.057706072
0.057706072
0.057706072
0.057706072
0.057706072
0.057706072
0.057706072
0.057706072
0.057706072
0.057706072
0.057706072
0.057706072
0.057706072
0.057706072
0.057706072
0.057706072
0.057706072
0.057706072
0.057706072
0.057706072
0.057706072
0.057706072
0.057706072
0.057706072
0.057706072
0.057706072
0.057706072
0.057706072
0.057706072
0.057706072
0.057706072
0.057706072
0.057706072
0.057706072
0.057706072
0.057706072
0.057706072
0.057706072
0.057706072
0.057706072
0.057706072
0.057706072
0.057706072
0.057706072
0.057706072
0.057706072
0.057706072
0.057706072
0.057706072
0.057706072
0.057706072
0.057706072
0.057706072
0.057706072
0.034297072
0.023491913
0.025479786
0.021091463
0.025525834
0.029271294
0.022005389
0.019434041
0.022985276
0.027741308
0.041106333
0.049826537
0.055430991
0.057208777
0.05767697
0.05771592
0.057711193
0.057706848
0.057706098
0.05770605
0.057706067
0.057706071
0.057706072
0.057706072
0.057706072
0.057706072
0.057706072
0.057706072
0.057706072
0.057706072
0.057706072
0.057706072
0.057706072
0.057706072
0.057706072
0.057706072
0.057706072
0.057706072
0.057706072
0.057706072
0.057706072
0.057706072
0.057706072
0.057706072
0.057706072
0.057706072
0.057706072
0.057706072
0.057706072
0.057706072
0.057706072
0.057706072
0.057706072
0.057706072
0.057706072
0.057706072
0.057706072
0.057706072
0.057706072
0.057706072
0.057706072
0.057706072
0.057706072
0.057706072
0.057706072
0.057706072
0.057706072
0.057706072
0.057706072
0.057706072
0.057706072
0.057706072
0.057706072
0.057706072
0.057706072
0.057706072
0.057706072
0.057706072
0.057706072
0.057706072
0.029867647
0.0088918421
0.014692415
0.012110443
0.018607936
0.025832137
0.016834968
0.014086152
0.019940864
0.025199957
0.039879653
0.049129266
0.055149174
0.057123705
0.057662115
0.057715424
0.057711755
0.057707061
0.057706123
0.057706048
0.057706066
0.057706071
0.057706072
0.057706072
0.057706072
0.057706072
0.057706072
0.057706072
0.057706072
0.057706072
0.057706072
0.057706072
0.057706072
0.057706072
0.057706072
0.057706072
0.057706072
0.057706072
0.057706072
0.057706072
0.057706072
0.057706072
0.057706072
0.057706072
0.057706072
0.057706072
0.057706072
0.057706072
0.057706072
0.057706072
0.057706072
0.057706072
0.057706072
0.057706072
0.057706072
0.057706072
0.057706072
0.057706072
0.057706072
0.057706072
0.057706072
0.057706072
0.057706072
0.057706072
0.057706072
0.057706072
0.057706072
0.057706072
0.057706072
0.057706072
0.057706072
0.057706072
0.057706072
0.057706072
0.057706072
0.057706072
0.057706072
0.057706072
0.057706072
0.057706072
0.058769228
0.053865038
0.054464478
0.054611812
0.054994221
0.055738224
0.056331454
0.05705012
0.05726451
0.057468707
0.057616289
0.057681097
0.057704051
0.057706218
0.057706322
0.057706111
0.057706079
0.057706071
0.057706071
0.057706072
0.057706072
0.057706072
0.057706072
0.057706072
0.057706072
0.057706072
0.057706072
0.057706072
0.057706072
0.057706072
0.057706072
0.057706072