/*--------------------------------*- C++ -*----------------------------------*\
| =========                 |                                                 |
| \\      /  F ield         | OpenFOAM: The Open Source CFD Toolbox           |
|  \\    /   O peration     | Version:  2406                                  |
|   \\  /    A nd           | Website:  www.openfoam.com                      |
|    \\/     M anipulation  |                                                 |
\*---------------------------------------------------------------------------*/
FoamFile
{
    version     2.0;
    format      ascii;
    arch        "LSB;label=32;scalar=64";
    class       volScalarField;
    location    "7e-05";
    object      nut;
}
// * * * * * * * * * * * * * * * * * * * * * * * * * * * * * * * * * * * * * //

dimensions      [0 2 -1 0 0 0 0];

internalField   nonuniform List<scalar> 
16000
(
9.9501194e-06
6.1605286e-05
0.00025579897
0.00018489407
0.00019646018
0.00012262432
0.00014923627
0.00013837864
0.00014040897
0.00020156028
0.0003137807
0.00091017379
0.00099993703
0.00099993726
0.00099993706
0.00099993701
0.000999937
0.000999937
0.000999937
0.000999937
0.000999937
0.000999937
0.000999937
0.000999937
0.000999937
0.000999937
0.000999937
0.000999937
0.000999937
0.000999937
0.000999937
0.000999937
0.000999937
0.000999937
0.000999937
0.000999937
0.000999937
0.000999937
0.000999937
0.000999937
0.000999937
0.000999937
0.000999937
0.000999937
0.000999937
0.000999937
0.000999937
0.000999937
0.000999937
0.000999937
0.000999937
0.000999937
0.000999937
0.000999937
0.000999937
0.000999937
0.000999937
0.000999937
0.000999937
0.000999937
0.000999937
0.000999937
0.000999937
0.000999937
0.000999937
0.000999937
0.000999937
0.000999937
0.000999937
0.000999937
0.000999937
0.000999937
0.000999937
0.000999937
0.000999937
0.000999937
0.000999937
0.000999937
0.000999937
0.00099993701
9.6507774e-06
8.705253e-05
0.00018513103
0.00015142183
0.00013196888
0.00010300064
0.00012645337
0.00011540827
6.6471759e-05
7.6313834e-05
0.00010166789
0.00024770531
0.00099993537
0.00099993721
0.00099993715
0.00099993706
0.00099993701
0.000999937
0.000999937
0.000999937
0.000999937
0.000999937
0.000999937
0.000999937
0.000999937
0.000999937
0.000999937
0.000999937
0.000999937
0.000999937
0.000999937
0.000999937
0.000999937
0.000999937
0.000999937
0.000999937
0.000999937
0.000999937
0.000999937
0.000999937
0.000999937
0.000999937
0.000999937
0.000999937
0.000999937
0.000999937
0.000999937
0.000999937
0.000999937
0.000999937
0.000999937
0.000999937
0.000999937
0.000999937
0.000999937
0.000999937
0.000999937
0.000999937
0.000999937
0.000999937
0.000999937
0.000999937
0.000999937
0.000999937
0.000999937
0.000999937
0.000999937
0.000999937
0.000999937
0.000999937
0.000999937
0.000999937
0.000999937
0.000999937
0.000999937
0.000999937
0.000999937
0.000999937
0.000999937
0.00099993702
9.3812185e-06
0.00018659166
8.2092864e-05
0.00011332375
0.00011585239
9.7651169e-05
9.0974947e-05
8.7181959e-05
4.2653294e-05
4.5216012e-05
5.6673952e-05
0.00012606375
0.00047520617
0.000999937
0.00099993724
0.00099993713
0.00099993702
0.000999937
0.000999937
0.000999937
0.000999937
0.000999937
0.000999937
0.000999937
0.000999937
0.000999937
0.000999937
0.000999937
0.000999937
0.000999937
0.000999937
0.000999937
0.000999937
0.000999937
0.000999937
0.000999937
0.000999937
0.000999937
0.000999937
0.000999937
0.000999937
0.000999937
0.000999937
0.000999937
0.000999937
0.000999937
0.000999937
0.000999937
0.000999937
0.000999937
0.000999937
0.000999937
0.000999937
0.000999937
0.000999937
0.000999937
0.000999937
0.000999937
0.000999937
0.000999937
0.000999937
0.000999937
0.000999937
0.000999937
0.000999937
0.000999937
0.000999937
0.000999937
0.000999937
0.000999937
0.000999937
0.000999937
0.000999937
0.000999937
0.000999937
0.000999937
0.000999937
0.000999937
0.000999937
0.00099993703
6.2421212e-06
0.00013448743
7.2294719e-05
8.9137626e-05
8.4151666e-05
8.137198e-05
6.0150984e-05
7.0415812e-05
3.1706602e-05
3.1187747e-05
3.7226713e-05
7.8391602e-05
0.00026487048
0.00099993694
0.00099993735
0.00099993721
0.00099993703
0.000999937
0.000999937
0.000999937
0.000999937
0.000999937
0.000999937
0.000999937
0.000999937
0.000999937
0.000999937
0.000999937
0.000999937
0.000999937
0.000999937
0.000999937
0.000999937
0.000999937
0.000999937
0.000999937
0.000999937
0.000999937
0.000999937
0.000999937
0.000999937
0.000999937
0.000999937
0.000999937
0.000999937
0.000999937
0.000999937
0.000999937
0.000999937
0.000999937
0.000999937
0.000999937
0.000999937
0.000999937
0.000999937
0.000999937
0.000999937
0.000999937
0.000999937
0.000999937
0.000999937
0.000999937
0.000999937
0.000999937
0.000999937
0.000999937
0.000999937
0.000999937
0.000999937
0.000999937
0.000999937
0.000999937
0.000999937
0.000999937
0.000999937
0.000999937
0.000999937
0.000999937
0.000999937
0.00099993704
4.6079614e-06
6.6235496e-05
7.3789441e-05
7.9463694e-05
5.0570509e-05
6.1333435e-05
3.8798167e-05
5.9532734e-05
2.5074461e-05
2.3608506e-05
2.6814003e-05
5.3965509e-05
0.00016678808
0.00083833737
0.00099993746
0.0009999373
0.00099993705
0.000999937
0.000999937
0.000999937
0.000999937
0.000999937
0.000999937
0.000999937
0.000999937
0.000999937
0.000999937
0.000999937
0.000999937
0.000999937
0.000999937
0.000999937
0.000999937
0.000999937
0.000999937
0.000999937
0.000999937
0.000999937
0.000999937
0.000999937
0.000999937
0.000999937
0.000999937
0.000999937
0.000999937
0.000999937
0.000999937
0.000999937
0.000999937
0.000999937
0.000999937
0.000999937
0.000999937
0.000999937
0.000999937
0.000999937
0.000999937
0.000999937
0.000999937
0.000999937
0.000999937
0.000999937
0.000999937
0.000999937
0.000999937
0.000999937
0.000999937
0.000999937
0.000999937
0.000999937
0.000999937
0.000999937
0.000999937
0.000999937
0.000999937
0.000999937
0.000999937
0.000999937
0.000999937
0.00099993705
3.542339e-06
3.9611563e-05
7.017512e-05
8.0229192e-05
3.3325391e-05
4.6040388e-05
2.7460082e-05
5.4464587e-05
2.1054537e-05
1.8703759e-05
2.0430728e-05
3.9546087e-05
0.00011292286
0.00053704095
0.00099993755
0.00099993741
0.00099993707
0.00099993701
0.000999937
0.000999937
0.000999937
0.000999937
0.000999937
0.000999937
0.000999937
0.000999937
0.000999937
0.000999937
0.000999937
0.000999937
0.000999937
0.000999937
0.000999937
0.000999937
0.000999937
0.000999937
0.000999937
0.000999937
0.000999937
0.000999937
0.000999937
0.000999937
0.000999937
0.000999937
0.000999937
0.000999937
0.000999937
0.000999937
0.000999937
0.000999937
0.000999937
0.000999937
0.000999937
0.000999937
0.000999937
0.000999937
0.000999937
0.000999937
0.000999937
0.000999937
0.000999937
0.000999937
0.000999937
0.000999937
0.000999937
0.000999937
0.000999937
0.000999937
0.000999937
0.000999937
0.000999937
0.000999937
0.000999937
0.000999937
0.000999937
0.000999937
0.000999937
0.000999937
0.000999937
0.00099993706
2.8242426e-06
2.5739632e-05
6.5664715e-05
8.4445534e-05
2.4385313e-05
3.735996e-05
2.1301953e-05
5.3108153e-05
1.8539428e-05
1.5328066e-05
1.6183044e-05
3.0244721e-05
8.0481363e-05
0.00036447184
0.0009999376
0.00099993754
0.00099993711
0.00099993701
0.000999937
0.000999937
0.000999937
0.000999937
0.000999937
0.000999937
0.000999937
0.000999937
0.000999937
0.000999937
0.000999937
0.000999937
0.000999937
0.000999937
0.000999937
0.000999937
0.000999937
0.000999937
0.000999937
0.000999937
0.000999937
0.000999937
0.000999937
0.000999937
0.000999937
0.000999937
0.000999937
0.000999937
0.000999937
0.000999937
0.000999937
0.000999937
0.000999937
0.000999937
0.000999937
0.000999937
0.000999937
0.000999937
0.000999937
0.000999937
0.000999937
0.000999937
0.000999937
0.000999937
0.000999937
0.000999937
0.000999937
0.000999937
0.000999937
0.000999937
0.000999937
0.000999937
0.000999937
0.000999937
0.000999937
0.000999937
0.000999937
0.000999937
0.000999937
0.000999937
0.000999937
0.00099993708
2.3271929e-06
1.7712941e-05
6.0453332e-05
8.8587007e-05
1.9060845e-05
3.3580591e-05
1.7515633e-05
5.5590871e-05
1.6919951e-05
1.2839185e-05
1.3193692e-05
2.3880354e-05
5.9649564e-05
0.00025870096
0.00099993761
0.00099993768
0.00099993716
0.00099993702
0.000999937
0.000999937
0.000999937
0.000999937
0.000999937
0.000999937
0.000999937
0.000999937
0.000999937
0.000999937
0.000999937
0.000999937
0.000999937
0.000999937
0.000999937
0.000999937
0.000999937
0.000999937
0.000999937
0.000999937
0.000999937
0.000999937
0.000999937
0.000999937
0.000999937
0.000999937
0.000999937
0.000999937
0.000999937
0.000999937
0.000999937
0.000999937
0.000999937
0.000999937
0.000999937
0.000999937
0.000999937
0.000999937
0.000999937
0.000999937
0.000999937
0.000999937
0.000999937
0.000999937
0.000999937
0.000999937
0.000999937
0.000999937
0.000999937
0.000999937
0.000999937
0.000999937
0.000999937
0.000999937
0.000999937
0.000999937
0.000999937
0.000999937
0.000999937
0.000999937
0.000999937
0.00099993709
1.9709128e-06
1.2824462e-05
5.3921776e-05
9.1140821e-05
1.5600472e-05
3.2238612e-05
1.4904042e-05
5.859882e-05
1.5784472e-05
1.0961321e-05
1.1006927e-05
1.9325142e-05
4.5580474e-05
0.00019025406
0.00099993757
0.00099993783
0.00099993721
0.00099993702
0.000999937
0.000999937
0.000999937
0.000999937
0.000999937
0.000999937
0.000999937
0.000999937
0.000999937
0.000999937
0.000999937
0.000999937
0.000999937
0.000999937
0.000999937
0.000999937
0.000999937
0.000999937
0.000999937
0.000999937
0.000999937
0.000999937
0.000999937
0.000999937
0.000999937
0.000999937
0.000999937
0.000999937
0.000999937
0.000999937
0.000999937
0.000999937
0.000999937
0.000999937
0.000999937
0.000999937
0.000999937
0.000999937
0.000999937
0.000999937
0.000999937
0.000999937
0.000999937
0.000999937
0.000999937
0.000999937
0.000999937
0.000999937
0.000999937
0.000999937
0.000999937
0.000999937
0.000999937
0.000999937
0.000999937
0.000999937
0.000999937
0.000999937
0.000999937
0.000999937
0.000999937
0.0009999371
1.7075466e-06
9.6585186e-06
4.635235e-05
9.2747718e-05
1.3186792e-05
3.124594e-05
1.2979663e-05
5.7586078e-05
1.4990736e-05
9.5138394e-06
9.3407131e-06
1.5942021e-05
3.5684624e-05
0.00014394797
0.00099993748
0.000999938
0.00099993728
0.00099993703
0.000999937
0.000999937
0.000999937
0.000999937
0.000999937
0.000999937
0.000999937
0.000999937
0.000999937
0.000999937
0.000999937
0.000999937
0.000999937
0.000999937
0.000999937
0.000999937
0.000999937
0.000999937
0.000999937
0.000999937
0.000999937
0.000999937
0.000999937
0.000999937
0.000999937
0.000999937
0.000999937
0.000999937
0.000999937
0.000999937
0.000999937
0.000999937
0.000999937
0.000999937
0.000999937
0.000999937
0.000999937
0.000999937
0.000999937
0.000999937
0.000999937
0.000999937
0.000999937
0.000999937
0.000999937
0.000999937
0.000999937
0.000999937
0.000999937
0.000999937
0.000999937
0.000999937
0.000999937
0.000999937
0.000999937
0.000999937
0.000999937
0.000999937
0.000999937
0.000999937
0.000999937
0.00099993712
1.512842e-06
7.4750692e-06
3.8170531e-05
9.4827998e-05
1.1500376e-05
3.1356554e-05
1.1499835e-05
5.087123e-05
1.4467133e-05
8.3735346e-06
8.0307166e-06
1.3352365e-05
2.8492121e-05
0.00011143781
0.00099993739
0.00099993819
0.00099993736
0.00099993704
0.000999937
0.000999937
0.000999937
0.000999937
0.000999937
0.000999937
0.000999937
0.000999937
0.000999937
0.000999937
0.000999937
0.000999937
0.000999937
0.000999937
0.000999937
0.000999937
0.000999937
0.000999937
0.000999937
0.000999937
0.000999937
0.000999937
0.000999937
0.000999937
0.000999937
0.000999937
0.000999937
0.000999937
0.000999937
0.000999937
0.000999937
0.000999937
0.000999937
0.000999937
0.000999937
0.000999937
0.000999937
0.000999937
0.000999937
0.000999937
0.000999937
0.000999937
0.000999937
0.000999937
0.000999937
0.000999937
0.000999937
0.000999937
0.000999937
0.000999937
0.000999937
0.000999937
0.000999937
0.000999937
0.000999937
0.000999937
0.000999937
0.000999937
0.000999937
0.000999937
0.000999937
0.00099993714
1.3729935e-06
5.9294331e-06
3.0192982e-05
9.5628735e-05
1.0335712e-05
3.281775e-05
1.0321445e-05
4.2007167e-05
1.4148362e-05
7.4487505e-06
6.9754187e-06
1.1318234e-05
2.3111623e-05
8.7869722e-05
0.00098710163
0.00099993839
0.00099993745
0.00099993706
0.000999937
0.000999937
0.000999937
0.000999937
0.000999937
0.000999937
0.000999937
0.000999937
0.000999937
0.000999937
0.000999937
0.000999937
0.000999937
0.000999937
0.000999937
0.000999937
0.000999937
0.000999937
0.000999937
0.000999937
0.000999937
0.000999937
0.000999937
0.000999937
0.000999937
0.000999937
0.000999937
0.000999937
0.000999937
0.000999937
0.000999937
0.000999937
0.000999937
0.000999937
0.000999937
0.000999937
0.000999937
0.000999937
0.000999937
0.000999937
0.000999937
0.000999937
0.000999937
0.000999937
0.000999937
0.000999937
0.000999937
0.000999937
0.000999937
0.000999937
0.000999937
0.000999937
0.000999937
0.000999937
0.000999937
0.000999937
0.000999937
0.000999937
0.000999937
0.000999937
0.000999937
0.00099993715
1.2967238e-06
4.936647e-06
2.304407e-05
9.1575492e-05
9.4097912e-06
3.5913441e-05
9.324101e-06
3.3975506e-05
1.4018755e-05
6.6759773e-06
6.1076388e-06
9.685018e-06
1.9089921e-05
7.0311919e-05
0.00072081858
0.00099993861
0.00099993755
0.00099993708
0.000999937
0.000999937
0.000999937
0.000999937
0.000999937
0.000999937
0.000999937
0.000999937
0.000999937
0.000999937
0.000999937
0.000999937
0.000999937
0.000999937
0.000999937
0.000999937
0.000999937
0.000999937
0.000999937
0.000999937
0.000999937
0.000999937
0.000999937
0.000999937
0.000999937
0.000999937
0.000999937
0.000999937
0.000999937
0.000999937
0.000999937
0.000999937
0.000999937
0.000999937
0.000999937
0.000999937
0.000999937
0.000999937
0.000999937
0.000999937
0.000999937
0.000999937
0.000999937
0.000999937
0.000999937
0.000999937
0.000999937
0.000999937
0.000999937
0.000999937
0.000999937
0.000999937
0.000999937
0.000999937
0.000999937
0.000999937
0.000999937
0.000999937
0.000999937
0.000999937
0.000999937
0.00099993717
1.249306e-06
4.4940983e-06
1.755204e-05
8.4158849e-05
8.5407043e-06
3.9830997e-05
8.4752208e-06
2.7489983e-05
1.4085033e-05
6.0190314e-06
5.3823525e-06
8.3477625e-06
1.6134299e-05
5.6915843e-05
0.00053946382
0.00099993884
0.00099993767
0.0009999371
0.000999937
0.000999937
0.000999937
0.000999937
0.000999937
0.000999937
0.000999937
0.000999937
0.000999937
0.000999937
0.000999937
0.000999937
0.000999937
0.000999937
0.000999937
0.000999937
0.000999937
0.000999937
0.000999937
0.000999937
0.000999937
0.000999937
0.000999937
0.000999937
0.000999937
0.000999937
0.000999937
0.000999937
0.000999937
0.000999937
0.000999937
0.000999937
0.000999937
0.000999937
0.000999937
0.000999937
0.000999937
0.000999937
0.000999937
0.000999937
0.000999937
0.000999937
0.000999937
0.000999937
0.000999937
0.000999937
0.000999937
0.000999937
0.000999937
0.000999937
0.000999937
0.000999937
0.000999937
0.000999937
0.000999937
0.000999937
0.000999937
0.000999937
0.000999937
0.000999937
0.000999937
0.00099993719
1.2256975e-06
4.1537491e-06
1.34183e-05
7.4563004e-05
7.7579241e-06
4.5155319e-05
7.766523e-06
2.2492592e-05
1.4362245e-05
5.4570331e-06
4.7694142e-06
7.2362989e-06
1.3724519e-05
4.6491856e-05
0.0004114451
0.0009999391
0.0009999378
0.00099993713
0.000999937
0.000999937
0.000999937
0.000999937
0.000999937
0.000999937
0.000999937
0.000999937
0.000999937
0.000999937
0.000999937
0.000999937
0.000999937
0.000999937
0.000999937
0.000999937
0.000999937
0.000999937
0.000999937
0.000999937
0.000999937
0.000999937
0.000999937
0.000999937
0.000999937
0.000999937
0.000999937
0.000999937
0.000999937
0.000999937
0.000999937
0.000999937
0.000999937
0.000999937
0.000999937
0.000999937
0.000999937
0.000999937
0.000999937
0.000999937
0.000999937
0.000999937
0.000999937
0.000999937
0.000999937
0.000999937
0.000999937
0.000999937
0.000999937
0.000999937
0.000999937
0.000999937
0.000999937
0.000999937
0.000999937
0.000999937
0.000999937
0.000999937
0.000999937
0.000999937
0.000999937
0.00099993721
1.2350961e-06
3.6414044e-06
1.0402901e-05
5.8923995e-05
7.0737548e-06
4.6941536e-05
7.1838291e-06
1.8664406e-05
1.4819375e-05
4.9715081e-06
4.2467465e-06
6.3021549e-06
1.1735198e-05
3.8256912e-05
0.00031857832
0.00099993937
0.00099993795
0.00099993716
0.000999937
0.000999937
0.000999937
0.000999937
0.000999937
0.000999937
0.000999937
0.000999937
0.000999937
0.000999937
0.000999937
0.000999937
0.000999937
0.000999937
0.000999937
0.000999937
0.000999937
0.000999937
0.000999937
0.000999937
0.000999937
0.000999937
0.000999937
0.000999937
0.000999937
0.000999937
0.000999937
0.000999937
0.000999937
0.000999937
0.000999937
0.000999937
0.000999937
0.000999937
0.000999937
0.000999937
0.000999937
0.000999937
0.000999937
0.000999937
0.000999937
0.000999937
0.000999937
0.000999937
0.000999937
0.000999937
0.000999937
0.000999937
0.000999937
0.000999937
0.000999937
0.000999937
0.000999937
0.000999937
0.000999937
0.000999937
0.000999937
0.000999937
0.000999937
0.000999937
0.000999937
0.00099993724
1.2740313e-06
3.5032132e-06
8.1337823e-06
4.6444505e-05
6.4508388e-06
3.7044873e-05
6.6867586e-06
1.5663765e-05
1.5224331e-05
4.5358931e-06
3.7941207e-06
5.5084482e-06
1.0078635e-05
3.16911e-05
0.000249995
0.00099993966
0.00099993811
0.0009999372
0.000999937
0.000999937
0.000999937
0.000999937
0.000999937
0.000999937
0.000999937
0.000999937
0.000999937
0.000999937
0.000999937
0.000999937
0.000999937
0.000999937
0.000999937
0.000999937
0.000999937
0.000999937
0.000999937
0.000999937
0.000999937
0.000999937
0.000999937
0.000999937
0.000999937
0.000999937
0.000999937
0.000999937
0.000999937
0.000999937
0.000999937
0.000999937
0.000999937
0.000999937
0.000999937
0.000999937
0.000999937
0.000999937
0.000999937
0.000999937
0.000999937
0.000999937
0.000999937
0.000999937
0.000999937
0.000999937
0.000999937
0.000999937
0.000999937
0.000999937
0.000999937
0.000999937
0.000999937
0.000999937
0.000999937
0.000999937
0.000999937
0.000999937
0.000999937
0.000999937
0.000999937
0.00099993726
1.3439032e-06
3.0214583e-06
6.4182737e-06
3.1227933e-05
5.9958329e-06
2.6291341e-05
6.2159093e-06
1.3121656e-05
1.5047433e-05
4.1184713e-06
3.3881464e-06
4.8229462e-06
8.68827e-06
2.6444443e-05
0.00019902619
0.00099993996
0.0009999383
0.00099993724
0.000999937
0.000999937
0.000999937
0.000999937
0.000999937
0.000999937
0.000999937
0.000999937
0.000999937
0.000999937
0.000999937
0.000999937
0.000999937
0.000999937
0.000999937
0.000999937
0.000999937
0.000999937
0.000999937
0.000999937
0.000999937
0.000999937
0.000999937
0.000999937
0.000999937
0.000999937
0.000999937
0.000999937
0.000999937
0.000999937
0.000999937
0.000999937
0.000999937
0.000999937
0.000999937
0.000999937
0.000999937
0.000999937
0.000999937
0.000999937
0.000999937
0.000999937
0.000999937
0.000999937
0.000999937
0.000999937
0.000999937
0.000999937
0.000999937
0.000999937
0.000999937
0.000999937
0.000999937
0.000999937
0.000999937
0.000999937
0.000999937
0.000999937
0.000999937
0.000999937
0.000999937
0.00099993729
1.4902549e-06
2.2650403e-06
5.3839657e-06
3.0208853e-05
5.314565e-06
2.041851e-05
5.7245668e-06
1.0806691e-05
1.4314656e-05
3.7057022e-06
3.0154515e-06
4.2227676e-06
7.5174417e-06
2.2275018e-05
0.00016128882
0.00099994029
0.0009999385
0.00099993729
0.000999937
0.00099993699
0.000999937
0.000999937
0.000999937
0.000999937
0.000999937
0.000999937
0.000999937
0.000999937
0.000999937
0.000999937
0.000999937
0.000999937
0.000999937
0.000999937
0.000999937
0.000999937
0.000999937
0.000999937
0.000999937
0.000999937
0.000999937
0.000999937
0.000999937
0.000999937
0.000999937
0.000999937
0.000999937
0.000999937
0.000999937
0.000999937
0.000999937
0.000999937
0.000999937
0.000999937
0.000999937
0.000999937
0.000999937
0.000999937
0.000999937
0.000999937
0.000999937
0.000999937
0.000999937
0.000999937
0.000999937
0.000999937
0.000999937
0.000999937
0.000999937
0.000999937
0.000999937
0.000999937
0.000999937
0.000999937
0.000999937
0.000999937
0.000999937
0.000999937
0.000999937
0.00099993732
1.6584587e-06
2.4473838e-06
3.7183173e-06
2.1669441e-05
4.8191022e-06
1.4771461e-05
4.9659412e-06
9.1679792e-06
1.3618146e-05
3.3336097e-06
2.6853396e-06
3.7104829e-06
6.5466338e-06
1.9006687e-05
0.00013365128
0.00099994065
0.00099993872
0.00099993734
0.000999937
0.00099993699
0.000999937
0.000999937
0.000999937
0.000999937
0.000999937
0.000999937
0.000999937
0.000999937
0.000999937
0.000999937
0.000999937
0.000999937
0.000999937
0.000999937
0.000999937
0.000999937
0.000999937
0.000999937
0.000999937
0.000999937
0.000999937
0.000999937
0.000999937
0.000999937
0.000999937
0.000999937
0.000999937
0.000999937
0.000999937
0.000999937
0.000999937
0.000999937
0.000999937
0.000999937
0.000999937
0.000999937
0.000999937
0.000999937
0.000999937
0.000999937
0.000999937
0.000999937
0.000999937
0.000999937
0.000999937
0.000999937
0.000999937
0.000999937
0.000999937
0.000999937
0.000999937
0.000999937
0.000999937
0.000999937
0.000999937
0.000999937
0.000999937
0.000999937
0.000999937
0.00099993735
1.722578e-06
2.0808646e-06
2.8775184e-06
1.1279871e-05
4.7448048e-06
8.6424178e-06
4.6902121e-06
8.5204209e-06
1.2828275e-05
3.0498527e-06
2.4170821e-06
3.3034175e-06
5.7773154e-06
1.6535329e-05
0.00011413051
0.00099994104
0.00099993893
0.00099993739
0.00099993701
0.00099993699
0.000999937
0.000999937
0.000999937
0.000999937
0.000999937
0.000999937
0.000999937
0.000999937
0.000999937
0.000999937
0.000999937
0.000999937
0.000999937
0.000999937
0.000999937
0.000999937
0.000999937
0.000999937
0.000999937
0.000999937
0.000999937
0.000999937
0.000999937
0.000999937
0.000999937
0.000999937
0.000999937
0.000999937
0.000999937
0.000999937
0.000999937
0.000999937
0.000999937
0.000999937
0.000999937
0.000999937
0.000999937
0.000999937
0.000999937
0.000999937
0.000999937
0.000999937
0.000999937
0.000999937
0.000999937
0.000999937
0.000999937
0.000999937
0.000999937
0.000999937
0.000999937
0.000999937
0.000999937
0.000999937
0.000999937
0.000999937
0.000999937
0.000999937
0.000999937
0.00099993738
1.492704e-06
2.2562918e-06
2.372238e-06
8.8583302e-06
4.5935436e-06
6.5195527e-06
4.5231328e-06
7.8664465e-06
1.163838e-05
2.806571e-06
2.2076556e-06
2.995426e-06
5.2124852e-06
1.4845529e-05
0.00010188411
0.00099994144
0.00099993912
0.00099993743
0.00099993701
0.00099993699
0.000999937
0.000999937
0.000999937
0.000999937
0.000999937
0.000999937
0.000999937
0.000999937
0.000999937
0.000999937
0.000999937
0.000999937
0.000999937
0.000999937
0.000999937
0.000999937
0.000999937
0.000999937
0.000999937
0.000999937
0.000999937
0.000999937
0.000999937
0.000999937
0.000999937
0.000999937
0.000999937
0.000999937
0.000999937
0.000999937
0.000999937
0.000999937
0.000999937
0.000999937
0.000999937
0.000999937
0.000999937
0.000999937
0.000999937
0.000999937
0.000999937
0.000999937
0.000999937
0.000999937
0.000999937
0.000999937
0.000999937
0.000999937
0.000999937
0.000999937
0.000999937
0.000999937
0.000999937
0.000999937
0.000999937
0.000999937
0.000999937
0.000999937
0.000999937
0.00099993741
1.2516173e-06
1.893027e-06
2.110817e-06
8.1126746e-06
4.455216e-06
5.9095566e-06
4.1221448e-06
7.2704819e-06
1.0067509e-05
2.5638467e-06
2.0394969e-06
2.77565e-06
4.8445984e-06
1.3941282e-05
9.701095e-05
0.00099994182
0.00099993924
0.00099993744
0.000999937
0.00099993699
0.000999937
0.000999937
0.000999937
0.000999937
0.000999937
0.000999937
0.000999937
0.000999937
0.000999937
0.000999937
0.000999937
0.000999937
0.000999937
0.000999937
0.000999937
0.000999937
0.000999937
0.000999937
0.000999937
0.000999937
0.000999937
0.000999937
0.000999937
0.000999937
0.000999937
0.000999937
0.000999937
0.000999937
0.000999937
0.000999937
0.000999937
0.000999937
0.000999937
0.000999937
0.000999937
0.000999937
0.000999937
0.000999937
0.000999937
0.000999937
0.000999937
0.000999937
0.000999937
0.000999937
0.000999937
0.000999937
0.000999937
0.000999937
0.000999937
0.000999937
0.000999937
0.000999937
0.000999937
0.000999937
0.000999937
0.000999937
0.000999937
0.000999937
0.000999937
0.00099993744
1.0682437e-06
1.8334315e-06
2.0068075e-06
7.112122e-06
6.8787407e-06
5.8597219e-06
3.7537866e-06
6.880189e-06
1.25203e-05
2.3351188e-06
1.9125889e-06
2.6413379e-06
4.672697e-06
1.3867341e-05
0.00010046148
0.00099994212
0.00099993927
0.00099993742
0.000999937
0.00099993699
0.000999937
0.000999937
0.000999937
0.000999937
0.000999937
0.000999937
0.000999937
0.000999937
0.000999937
0.000999937
0.000999937
0.000999937
0.000999937
0.000999937
0.000999937
0.000999937
0.000999937
0.000999937
0.000999937
0.000999937
0.000999937
0.000999937
0.000999937
0.000999937
0.000999937
0.000999937
0.000999937
0.000999937
0.000999937
0.000999937
0.000999937
0.000999937
0.000999937
0.000999937
0.000999937
0.000999937
0.000999937
0.000999937
0.000999937
0.000999937
0.000999937
0.000999937
0.000999937
0.000999937
0.000999937
0.000999937
0.000999937
0.000999937
0.000999937
0.000999937
0.000999937
0.000999937
0.000999937
0.000999937
0.000999937
0.000999937
0.000999937
0.000999937
0.000999937
0.00099993747
9.570073e-07
2.4355332e-06
2.3489194e-06
6.4804467e-06
8.739128e-06
6.7213255e-06
3.8309634e-06
6.5345326e-06
8.3812813e-06
2.1451979e-06
1.8158399e-06
2.5913416e-06
4.6964902e-06
1.4708743e-05
0.0001148758
0.00099994231
0.00099993918
0.00099993737
0.00099993699
0.00099993699
0.000999937
0.000999937
0.000999937
0.000999937
0.000999937
0.000999937
0.000999937
0.000999937
0.000999937
0.000999937
0.000999937
0.000999937
0.000999937
0.000999937
0.000999937
0.000999937
0.000999937
0.000999937
0.000999937
0.000999937
0.000999937
0.000999937
0.000999937
0.000999937
0.000999937
0.000999937
0.000999937
0.000999937
0.000999937
0.000999937
0.000999937
0.000999937
0.000999937
0.000999937
0.000999937
0.000999937
0.000999937
0.000999937
0.000999937
0.000999937
0.000999937
0.000999937
0.000999937
0.000999937
0.000999937
0.000999937
0.000999937
0.000999937
0.000999937
0.000999937
0.000999937
0.000999937
0.000999937
0.000999937
0.000999937
0.000999937
0.000999937
0.000999937
0.000999937
0.0009999375
8.2968767e-07
2.2688856e-06
2.2323842e-06
5.181438e-06
4.4222131e-06
6.6934967e-06
3.1171996e-06
5.8586575e-06
4.8602943e-06
2.124301e-06
1.74211e-06
2.6219361e-06
4.9250293e-06
1.6663307e-05
0.00014615511
0.00099994227
0.00099993898
0.0009999373
0.00099993699
0.00099993699
0.000999937
0.000999937
0.000999937
0.000999937
0.000999937
0.000999937
0.000999937
0.000999937
0.000999937
0.000999937
0.000999937
0.000999937
0.000999937
0.000999937
0.000999937
0.000999937
0.000999937
0.000999937
0.000999937
0.000999937
0.000999937
0.000999937
0.000999937
0.000999937
0.000999937
0.000999937
0.000999937
0.000999937
0.000999937
0.000999937
0.000999937
0.000999937
0.000999937
0.000999937
0.000999937
0.000999937
0.000999937
0.000999937
0.000999937
0.000999937
0.000999937
0.000999937
0.000999937
0.000999937
0.000999937
0.000999937
0.000999937
0.000999937
0.000999937
0.000999937
0.000999937
0.000999937
0.000999937
0.000999937
0.000999937
0.000999937
0.000999937
0.000999937
0.000999937
0.00099993753
8.0166649e-07
1.4206704e-06
1.569118e-06
3.2889973e-06
2.2833395e-06
5.8921753e-06
2.4651792e-06
4.9781986e-06
3.816175e-06
1.8978012e-06
1.7076971e-06
2.7131828e-06
5.3534138e-06
1.971434e-05
0.000201032
0.00099994203
0.00099993871
0.00099993722
0.00099993698
0.00099993699
0.000999937
0.000999937
0.000999937
0.000999937
0.000999937
0.000999937
0.000999937
0.000999937
0.000999937
0.000999937
0.000999937
0.000999937
0.000999937
0.000999937
0.000999937
0.000999937
0.000999937
0.000999937
0.000999937
0.000999937
0.000999937
0.000999937
0.000999937
0.000999937
0.000999937
0.000999937
0.000999937
0.000999937
0.000999937
0.000999937
0.000999937
0.000999937
0.000999937
0.000999937
0.000999937
0.000999937
0.000999937
0.000999937
0.000999937
0.000999937
0.000999937
0.000999937
0.000999937
0.000999937
0.000999937
0.000999937
0.000999937
0.000999937
0.000999937
0.000999937
0.000999937
0.000999937
0.000999937
0.000999937
0.000999937
0.000999937
0.000999937
0.000999937
0.000999937
0.00099993755
7.2152812e-07
1.0336634e-06
1.7765017e-06
2.7662502e-06
1.8546281e-06
4.9974036e-06
2.3342365e-06
4.3854176e-06
3.2383823e-06
1.8175438e-06
1.6966244e-06
2.8232888e-06
5.9158216e-06
2.3054848e-05
0.00027288616
0.00099994174
0.00099993846
0.00099993717
0.00099993698
0.00099993699
0.000999937
0.000999937
0.000999937
0.000999937
0.000999937
0.000999937
0.000999937
0.000999937
0.000999937
0.000999937
0.000999937
0.000999937
0.000999937
0.000999937
0.000999937
0.000999937
0.000999937
0.000999937
0.000999937
0.000999937
0.000999937
0.000999937
0.000999937
0.000999937
0.000999937
0.000999937
0.000999937
0.000999937
0.000999937
0.000999937
0.000999937
0.000999937
0.000999937
0.000999937
0.000999937
0.000999937
0.000999937
0.000999937
0.000999937
0.000999937
0.000999937
0.000999937
0.000999937
0.000999937
0.000999937
0.000999937
0.000999937
0.000999937
0.000999937
0.000999937
0.000999937
0.000999937
0.000999937
0.000999937
0.000999937
0.000999937
0.000999937
0.000999937
0.000999937
0.00099993757
7.6054752e-07
1.2316066e-06
1.58024e-06
2.7604533e-06
1.6867679e-06
4.9004474e-06
2.9408328e-06
4.2214554e-06
2.8528946e-06
1.801333e-06
1.6875325e-06
2.8724313e-06
6.1866506e-06
2.4534986e-05
0.00030881142
0.00099994159
0.00099993836
0.00099993715
0.00099993698
0.000999937
0.000999937
0.000999937
0.000999937
0.000999937
0.000999937
0.000999937
0.000999937
0.000999937
0.000999937
0.000999937
0.000999937
0.000999937
0.000999937
0.000999937
0.000999937
0.000999937
0.000999937
0.000999937
0.000999937
0.000999937
0.000999937
0.000999937
0.000999937
0.000999937
0.000999937
0.000999937
0.000999937
0.000999937
0.000999937
0.000999937
0.000999937
0.000999937
0.000999937
0.000999937
0.000999937
0.000999937
0.000999937
0.000999937
0.000999937
0.000999937
0.000999937
0.000999937
0.000999937
0.000999937
0.000999937
0.000999937
0.000999937
0.000999937
0.000999937
0.000999937
0.000999937
0.000999937
0.000999937
0.000999937
0.000999937
0.000999937
0.000999937
0.000999937
0.000999937
0.00099993758
1.3778047e-06
1.8726913e-06
1.4180966e-06
2.9343381e-06
1.6841901e-06
5.3635518e-06
2.4515883e-06
4.8535588e-06
2.7629191e-06
1.841238e-06
1.6617557e-06
2.7807001e-06
5.6478807e-06
2.1586354e-05
0.00022763077