/*--------------------------------*- C++ -*----------------------------------*\
| =========                 |                                                 |
| \\      /  F ield         | OpenFOAM: The Open Source CFD Toolbox           |
|  \\    /   O peration     | Version:  2406                                  |
|   \\  /    A nd           | Website:  www.openfoam.com                      |
|    \\/     M anipulation  |                                                 |
\*---------------------------------------------------------------------------*/
FoamFile
{
    version     2.0;
    format      ascii;
    arch        "LSB;label=32;scalar=64";
    class       volScalarField;
    location    "7e-05";
    object      p;
}
// * * * * * * * * * * * * * * * * * * * * * * * * * * * * * * * * * * * * * //

dimensions      [1 -1 -2 0 0 0 0];

internalField   nonuniform List<scalar> 
16000
(
100047.99
100039.26
100059.64
100023.84
100044.6
100036.99
100057.71
100048.44
100042.04
100020.49
100008.56
100001.12
99999.976
99999.866
99999.973
99999.996
100000
100000
100000
100000
100000
100000
100000
100000
100000
100000
100000
100000
100000
100000
100000
100000
100000
100000
100000
100000
100000
100000
100000
100000
100000
100000
100000
100000
100000
100000
100000
100000
100000
100000
100000
100000
100000
100000
100000
100000
100000
100000
100000
100000
100000
100000
100000
100000
100000
100000
100000
100000
100000
100000
100000
100000
100000
100000
100000
100000
100000
100000
100000
100000
100118.48
100141.17
100159.94
100122.86
100125.43
100134.19
100164.82
100154.74
100132.56
100071.85
100032.04
100008
100001.45
99999.886
99999.922
99999.969
99999.998
100000
100000
100000
100000
100000
100000
100000
100000
100000
100000
100000
100000
100000
100000
100000
100000
100000
100000
100000
100000
100000
100000
100000
100000
100000
100000
100000
100000
100000
100000
100000
100000
100000
100000
100000
100000
100000
100000
100000
100000
100000
100000
100000
100000
100000
100000
100000
100000
100000
100000
100000
100000
100000
100000
100000
100000
100000
100000
100000
100000
100000
100000
100000
100199.81
100252.09
100268.08
100230.3
100192.53
100247.02
100273.71
100267.84
100231.41
100132.86
100063.64
100018.35
100003.83
100000.05
99999.872
99999.934
99999.993
100000
100000
100000
100000
100000
100000
100000
100000
100000
100000
100000
100000
100000
100000
100000
100000
100000
100000
100000
100000
100000
100000
100000
100000
100000
100000
100000
100000
100000
100000
100000
100000
100000
100000
100000
100000
100000
100000
100000
100000
100000
100000
100000
100000
100000
100000
100000
100000
100000
100000
100000
100000
100000
100000
100000
100000
100000
100000
100000
100000
100000
100000
100000
100297.32
100357.65
100387.33
100331.81
100263.88
100358.23
100382.39
100387.52
100341.25
100205.04
100102.44
100031.44
100007.04
100000.28
99999.813
99999.891
99999.986
100000
100000
100000
100000
100000
100000
100000
100000
100000
100000
100000
100000
100000
100000
100000
100000
100000
100000
100000
100000
100000
100000
100000
100000
100000
100000
100000
100000
100000
100000
100000
100000
100000
100000
100000
100000
100000
100000
100000
100000
100000
100000
100000
100000
100000
100000
100000
100000
100000
100000
100000
100000
100000
100000
100000
100000
100000
100000
100000
100000
100000
100000
100000
100395.85
100468.37
100502.85
100435.73
100347.13
100467.79
100494.74
100508.15
100459.72
100287.23
100148.96
100047.99
100011.4
100000.68
99999.753
99999.84
99999.976
99999.999
100000
100000
100000
100000
100000
100000
100000
100000
100000
100000
100000
100000
100000
100000
100000
100000
100000
100000
100000
100000
100000
100000
100000
100000
100000
100000
100000
100000
100000
100000
100000
100000
100000
100000
100000
100000
100000
100000
100000
100000
100000
100000
100000
100000
100000
100000
100000
100000
100000
100000
100000
100000
100000
100000
100000
100000
100000
100000
100000
100000
100000
100000
100491.61
100583.98
100618.12
100544.18
100449.04
100567.39
100598.45
100642.84
100589.68
100379.49
100203.4
100068.4
100017.11
100001.33
99999.702
99999.781
99999.962
99999.998
100000
100000
100000
100000
100000
100000
100000
100000
100000
100000
100000
100000
100000
100000
100000
100000
100000
100000
100000
100000
100000
100000
100000
100000
100000
100000
100000
100000
100000
100000
100000
100000
100000
100000
100000
100000
100000
100000
100000
100000
100000
100000
100000
100000
100000
100000
100000
100000
100000
100000
100000
100000
100000
100000
100000
100000
100000
100000
100000
100000
100000
100000
100587.81
100709.53
100733.15
100660.82
100559.86
100666.05
100698.32
100787.12
100729.5
100482.08
100266.08
100092.98
100024.34
100002.27
99999.667
99999.713
99999.944
99999.996
100000
100000
100000
100000
100000
100000
100000
100000
100000
100000
100000
100000
100000
100000
100000
100000
100000
100000
100000
100000
100000
100000
100000
100000
100000
100000
100000
100000
100000
100000
100000
100000
100000
100000
100000
100000
100000
100000
100000
100000
100000
100000
100000
100000
100000
100000
100000
100000
100000
100000
100000
100000
100000
100000
100000
100000
100000
100000
100000
100000
100000
100000
100687.91
100845.67
100846.65
100786.5
100677.56
100768.64
100791.48
100945.76
100876.63
100594.83
100337.18
100121.91
100033.2
100003.56
99999.659
99999.638
99999.919
99999.993
100000
100000
100000
100000
100000
100000
100000
100000
100000
100000
100000
100000
100000
100000
100000
100000
100000
100000
100000
100000
100000
100000
100000
100000
100000
100000
100000
100000
100000
100000
100000
100000
100000
100000
100000
100000
100000
100000
100000
100000
100000
100000
100000
100000
100000
100000
100000
100000
100000
100000
100000
100000
100000
100000
100000
100000
100000
100000
100000
100000
100000
100000
100794.28
100990.43
100958.71
100922.66
100802.18
100875.56
100889.67
101107.96
101032.69
100717.79
100416.88
100155.46
100043.86
100005.25
99999.688
99999.554
99999.889
99999.989
100000
100000
100000
100000
100000
100000
100000
100000
100000
100000
100000
100000
100000
100000
100000
100000
100000
100000
100000
100000
100000
100000
100000
100000
100000
100000
100000
100000
100000
100000
100000
100000
100000
100000
100000
100000
100000
100000
100000
100000
100000
100000
100000
100000
100000
100000
100000
100000
100000
100000
100000
100000
100000
100000
100000
100000
100000
100000
100000
100000
100000
100000
100908.39
101144.74
101068.09
101070.72
100934.4
100989.11
100992.7
101272.03
101200.46
100851.56
100505.53
100193.93
100056.47
100007.4
99999.768
99999.461
99999.854
99999.984
100000
100000
100000
100000
100000
100000
100000
100000
100000
100000
100000
100000
100000
100000
100000
100000
100000
100000
100000
100000
100000
100000
100000
100000
100000
100000
100000
100000
100000
100000
100000
100000
100000
100000
100000
100000
100000
100000
100000
100000
100000
100000
100000
100000
100000
100000
100000
100000
100000
100000
100000
100000
100000
100000
100000
100000
100000
100000
100000
100000
100000
100000
101030.89
101310.64
101170.93
101234.51
101073.32
101111.97
101100.31
101439.01
101381.18
100996.58
100603.72
100237.71
100071.23
100010.07
99999.909
99999.359
99999.812
99999.978
100000
100000
100000
100000
100000
100000
100000
100000
100000
100000
100000
100000
100000
100000
100000
100000
100000
100000
100000
100000
100000
100000
100000
100000
100000
100000
100000
100000
100000
100000
100000
100000
100000
100000
100000
100000
100000
100000
100000
100000
100000
100000
100000
100000
100000
100000
100000
100000
100000
100000
100000
100000
100000
100000
100000
100000
100000
100000
100000
100000
100000
100000
101160.3
101489.69
101265.06
101418.65
101218.28
101246.85
101212.91
101613.25
101574.87
101153.01
100712.41
100287.36
100088.4
100013.34
100000.13
99999.247
99999.764
99999.97
100000
100000
100000
100000
100000
100000
100000
100000
100000
100000
100000
100000
100000
100000
100000
100000
100000
100000
100000
100000
100000
100000
100000
100000
100000
100000
100000
100000
100000
100000
100000
100000
100000
100000
100000
100000
100000
100000
100000
100000
100000
100000
100000
100000
100000
100000
100000
100000
100000
100000
100000
100000
100000
100000
100000
100000
100000
100000
100000
100000
100000
100000
101294.84
101685.63
101362.34
101617.11
101369.57
101391.66
101329.97
101797.9
101782.94
101322.01
100832.71
100343.59
100108.3
100017.29
100000.43
99999.126
99999.708
99999.96
100000
100000
100000
100000
100000
100000
100000
100000
100000
100000
100000
100000
100000
100000
100000
100000
100000
100000
100000
100000
100000
100000
100000
100000
100000
100000
100000
100000
100000
100000
100000
100000
100000
100000
100000
100000
100000
100000
100000
100000
100000
100000
100000
100000
100000
100000
100000
100000
100000
100000
100000
100000
100000
100000
100000
100000
100000
100000
100000
100000
100000
100000
101434.14
101900.01
101467.44
101828.79
101530.85
101546.09
101451.56
101994.21
102004.65
101507.15
100966.28
100407.38
100131.36
100022.06
100000.85
99998.995
99999.646
99999.948
100000
100000
100000
100000
100000
100000
100000
100000
100000
100000
100000
100000
100000
100000
100000
100000
100000
100000
100000
100000
100000
100000
100000
100000
100000
100000
100000
100000
100000
100000
100000
100000
100000
100000
100000
100000
100000
100000
100000
100000
100000
100000
100000
100000
100000
100000
100000
100000
100000
100000
100000
100000
100000
100000
100000
100000
100000
100000
100000
100000
100000
100000
101583.19
102137.27
101573.72
102062.21
101703.56
101715
101577.95
102202.74
102240.86
101709.95
101115
100479.89
100158.1
100027.79
100001.41
99998.854
99999.575
99999.934
100000
100000
100000
100000
100000
100000
100000
100000
100000
100000
100000
100000
100000
100000
100000
100000
100000
100000
100000
100000
100000
100000
100000
100000
100000
100000
100000
100000
100000
100000
100000
100000
100000
100000
100000
100000
100000
100000
100000
100000
100000
100000
100000
100000
100000
100000
100000
100000
100000
100000
100000
100000
100000
100000
100000
100000
100000
100000
100000
100000
100000
100000
101738.08
102398.05
101678.25
102322.49
101891.05
101903.45
101710.23
102424.94
102492.4
101932.13
101280.87
100562.41
100189.11
100034.65
100002.13
99998.702
99999.495
99999.916
100000
100000
100000
100000
100000
100000
100000
100000
100000
100000
100000
100000
100000
100000
100000
100000
100000
100000
100000
100000
100000
100000
100000
100000
100000
100000
100000
100000
100000
100000
100000
100000
100000
100000
100000
100000
100000
100000
100000
100000
100000
100000
100000
100000
100000
100000
100000
100000
100000
100000
100000
100000
100000
100000
100000
100000
100000
100000
100000
100000
100000
100000
101914.13
102702.75
101794.8
102615.14
102097.94
102117.71
101853.05
102666.92
102763.38
102177.14
101466.23
100656.28
100224.99
100042.81
100003.05
99998.541
99999.404
99999.896
100000
100000
100000
100000
100000
100000
100000
100000
100000
100000
100000
100000
100000
100000
100000
100000
100000
100000
100000
100000
100000
100000
100000
100000
100000
100000
100000
100000
100000
100000
100000
100000
100000
100000
100000
100000
100000
100000
100000
100000
100000
100000
100000
100000
100000
100000
100000
100000
100000
100000
100000
100000
100000
100000
100000
100000
100000
100000
100000
100000
100000
100000
102114.45
103048.69
101904.23
102929.67
102323.27
102361.47
102016.43
102940.27
103067.25
102453.03
101674.98
100762.93
100266.16
100052.37
100004.18
99998.371
99999.302
99999.872
100000
100000
100000
100000
100000
100000
100000
100000
100000
100000
100000
100000
100000
100000
100000
100000
100000
100000
100000
100000
100000
100000
100000
100000
100000
100000
100000
100000
100000
100000
100000
100000
100000
100000
100000
100000
100000
100000
100000
100000
100000
100000
100000
100000
100000
100000
100000
100000
100000
100000
100000
100000
100000
100000
100000
100000
100000
100000
100000
100000
100000
100000
102309.04
103444.95
102048.36
103311.25
102592.6
102613.85
102197.65
103252.11
103416.27
102771.48
101911.59
100883.65
100312.68
100063.24
100005.48
99998.19
99999.188
99999.845
100000
100000
100000
100000
100000
100000
100000
100000
100000
100000
100000
100000
100000
100000
100000
100000
100000
100000
100000
100000
100000
100000
100000
100000
100000
100000
100000
100000
100000
100000
100000
100000
100000
100000
100000
100000
100000
100000
100000
100000
100000
100000
100000
100000
100000
100000
100000
100000
100000
100000
100000
100000
100000
100000
100000
100000
100000
100000
100000
100000
100000
100000
102650.47
103898.59
102206.64
103640.29
102790.46
102883.92
102395.19
103601.32
103804.32
103128.73
102174.16
101017.13
100363.75
100075.13
100006.9
99997.994
99999.065
99999.817
99999.999
100000
100000
100000
100000
100000
100000
100000
100000
100000
100000
100000
100000
100000
100000
100000
100000
100000
100000
100000
100000
100000
100000
100000
100000
100000
100000
100000
100000
100000
100000
100000
100000
100000
100000
100000
100000
100000
100000
100000
100000
100000
100000
100000
100000
100000
100000
100000
100000
100000
100000
100000
100000
100000
100000
100000
100000
100000
100000
100000
100000
100000
102774.81
104319.08
102161.7
104190.44
103019.12
103290.87
102644.5
103966.51
104205.33
103491.09
102447.59
101155.38
100416.52
100087.19
100008.3
99997.785
99998.942
99999.79
99999.998
100000.01
100000
100000
100000
100000
100000
100000
100000
100000
100000
100000
100000
100000
100000
100000
100000
100000
100000
100000
100000
100000
100000
100000
100000
100000
100000
100000
100000
100000
100000
100000
100000
100000
100000
100000
100000
100000
100000
100000
100000
100000
100000
100000
100000
100000
100000
100000
100000
100000
100000
100000
100000
100000
100000
100000
100000
100000
100000
100000
100000
100000
102839.19
104827.68
102273.68
104811.16
103351.33
103698.41
102887.07
104339.51
104598.28
103838.17
102708.55
101283.93
100464.31
100097.57
100009.38
99997.569
99998.832
99999.768
99999.998
100000.01
100000
100000
100000
100000
100000
100000
100000
100000
100000
100000
100000
100000
100000
100000
100000
100000
100000
100000
100000
100000
100000
100000
100000
100000
100000
100000
100000
100000
100000
100000
100000
100000
100000
100000
100000
100000
100000
100000
100000
100000
100000
100000
100000
100000
100000
100000
100000
100000
100000
100000
100000
100000
100000
100000
100000
100000
100000
100000
100000
100000
103165.48
105401.78
102421.43
105320.71
103659.14
104062.36
103146.29
104755.11
104981.61
104158.47
102931.96
101382.95
100497.71
100103.48
100009.72
99997.357
99998.757
99999.758
99999.999
100000.01
100000
100000
100000
100000
100000
100000
100000
100000
100000
100000
100000
100000
100000
100000
100000
100000
100000
100000
100000
100000
100000
100000
100000
100000
100000
100000
100000
100000
100000
100000
100000
100000
100000
100000
100000
100000
100000
100000
100000
100000
100000
100000
100000
100000
100000
100000
100000
100000
100000
100000
100000
100000
100000
100000
100000
100000
100000
100000
100000
100000
103469.86
105886.97
102601.69
105766.35
103922.61
104379.48
103417.65
105195.07
105310.22
104422.5
103085.77
101431.18
100507.26
100102.38
100008.95
99997.167
99998.736
99999.765
100000
100000.01
100000
100000
100000
100000
100000
100000
100000
100000
100000
100000
100000
100000
100000
100000
100000
100000
100000
100000
100000
100000
100000
100000
100000
100000
100000
100000
100000
100000
100000
100000
100000
100000
100000
100000
100000
100000
100000
100000
100000
100000
100000
100000
100000
100000
100000
100000
100000
100000
100000
100000
100000
100000
100000
100000
100000
100000
100000
100000
100000
100000
103679.86
106301.16
102710.3
106104.16
104108.57
104594.32
103664.08
105590.42
105569.67
104604.06
103143.58
101414.01
100488.21
100093.43
100007.06
99997.043
99998.78
99999.791
100000
100000.01
100000
100000
100000
100000
100000
100000
100000
100000
100000
100000
100000
100000
100000
100000
100000
100000
100000
100000
100000
100000
100000
100000
100000
100000
100000
100000
100000
100000
100000
100000
100000
100000
100000
100000
100000
100000
100000
100000
100000
100000
100000
100000
100000
100000
100000
100000
100000
100000
100000
100000
100000
100000
100000
100000
100000
100000
100000
100000
100000
100000
103691.55
106615.11
102721.93
106341.19
104027.72
104724.34
103831.56
105851.69
105839.86
104663.96
103090.25
101333.01
100443.06
100078.36
100004.51
99997.037
99998.892
99999.83
100000.01
100000.01
100000
100000
100000
100000
100000
100000
100000
100000
100000
100000
100000
100000
100000
100000
100000
100000
100000
100000
100000
100000
100000
100000
100000
100000
100000
100000
100000
100000
100000
100000
100000
100000
100000
100000
100000
100000
100000
100000
100000
100000
100000
100000
100000
100000
100000
100000
100000
100000
100000
100000
100000
100000
100000
100000
100000
100000
100000
100000
100000
100000
103597.3
106654.79
102781
106121.42
103775.52
104802.72
103918.41
106054.05
106009.42
104615.79
102955.77
101216.21
100386.38
100062
100002.11
99997.148
99999.043
99999.871
100000.01
100000
100000
100000
100000
100000
100000
100000
100000
100000
100000
100000
100000
100000
100000
100000
100000
100000
100000
100000
100000
100000
100000
100000
100000
100000
100000
100000
100000
100000
100000
100000
100000
100000
100000
100000
100000
100000
100000
100000
100000
100000
100000
100000
100000
100000
100000
100000
100000
100000
100000
100000
100000
100000
100000
100000
100000
100000
100000
100000
100000
100000
103146.13
106400.25
102986.88
105390.71
103542.3
104853.34
104106.93
106119.87
106090.98
104518.37
102810.52
101110.27
100339.27
100049.77
100000.52
99997.302
99999.18
99999.901
100000.01
100000
100000
100000
100000
100000
100000
100000
100000
100000
100000
100000
100000
100000
100000
100000
100000
100000
100000
100000
100000
100000
100000
100000
100000
100000
100000
100000
100000
100000
100000
100000
100000
100000
100000
100000
100000
100000
100000
100000
100000
100000
100000
100000
100000
100000
100000
100000
100000
100000
100000
100000
100000
100000
100000
100000
100000
100000
100000
100000
100000
100000
102741.3
106278.55
103308.3
104640.73
103412.65
104871.87
104308.93
106077.61
106145.99
104447.93
102742.36
101064.83
100320.82
100045.45
100000
99997.375
99999.232
99999.912
100000.01
100000
100000
100000
100000
100000
100000
100000
100000
100000
100000
100000
100000
100000
100000
100000
100000
100000
100000
100000
100000
100000
100000
100000
100000
100000
100000
100000
100000
100000
100000
100000
100000
100000
100000
100000
100000
100000
100000
100000
100000
100000
100000
100000
100000
100000
100000
100000
100000
100000
100000
100000
100000
100000
100000
100000
100000
100000
100000
100000
100000
100000
102637.29
106208.07
103321.62
104378.96
103321.9
104906.35
104381.49
105982.44
106205.19
104511.1
102840.05
101135.83
100353.87
100055.34
100001.43
99997.319
99999.116
99999.885
100000.01
100000
100000
100000
100000
100000
100000
100000
100000
100000
100000
100000
100000
100000
100000
100000
100000
100000
100000
100000
100000
100000
100000
100000
100000
100000
100000
100000
100000
100000
100000
100000
100000
100000
100000
100000
100000
100000
100000
100000
100000
100000
100000
100000
100000
100000
100000
100000
100000
100000
100000
100000
100000
100000
100000
100000
100000
100000
100000
100000
100000
100000
99088.143
98585.35
98848.202
98925.346
99242.954
98706.734
98584.149
98686.076
99027.874
99532.634
99825.671
99965.286
99995.755
100001
100000.4
100000.1
100000
99999.998
99999.999
100000
100000
100000
100000
100000
100000
100000
100000
100000
100000
100000
100000
100000
100000
100000
100000
100000
100000
100000
100000
100000
100000
100000
100000
100000
100000
100000
100000
100000
100000
100000
100000
100000
100000
100000
100000
100000
100000
100000
100000
100000
100000
100000
100000
100000
100000
100000
100000
100000
100000
100000
100000
100000
100000
100000
100000
100000
100000
100000
100000
100000
99097.805
98574.419
98801.963
98897.172
99143.088
98596.756
98532.14
98668.979
98993.893
99499.296
99798.003
99954.579
99993.573
100000.97
100000.48
100000.14
100000
99999.998
99999.999
100000
100000
100000
100000
100000
100000
100000
100000
100000
100000
100000
100000
100000
100000
100000
100000
100000
100000
100000
100000
100000
100000
100000
100000
100000
100000
100000
100000
100000
100000
100000
100000
100000
100000
100000
100000
100000
100000
100000
100000
100000
100000
100000
100000
100000
100000
100000
100000
100000
100000
100000
100000
100000
100000
100000
100000
100000
100000
100000
100000
100000
99007.693
98487.051
98742.199
98835.415
99088.176
98570.245
98525.714
98680.205
99010.726
99507.94
99800.662
99954.567
99993.444
100000.91
100000.48
100000.14
100000
99999.998
99999.999
100000
100000
100000
100000
100000
100000
100000
100000
100000
100000
100000
100000
100000
100000
100000
100000
100000
100000
100000
100000
100000
100000
100000
100000
100000
100000
100000
100000
100000
100000
100000
100000
100000
100000
100000
100000
100000
100000
100000
100000
100000
100000
100000
100000
100000
100000
100000
100000
100000
100000
100000
100000
100000
100000
100000
100000
100000
100000
100000
100000
100000
99035.635
98526.63
98779.091
98864.779
99112.695
98612.793
98573.125
98713.707
99035.176
99518.427
99804.532
99955.24
99993.504
100000.87
100000.46
100000.14
100000
99999.998
99999.999
100000
100000
100000
100000
100000
100000
100000
100000
100000
100000
100000
100000
100000
100000
100000
100000
100000
100000
100000
100000
100000
100000
100000
100000
100000
100000
100000
100000
100000
100000
100000
100000
100000
100000
100000
100000
100000
100000
100000
100000
100000
100000
100000
100000
100000
100000
100000
100000
100000
100000
100000
100000
100000
100000
100000
100000
100000
100000
100000
100000
100000
99061.732
98565.415
98811.237
98896.124
99136.804
98654.099
98614.781
98747.348
99058.651
99528.672
99808.134
99955.841
99993.54
100000.84
100000.45
100000.14
100000
99999.998
99999.999
100000
100000
100000
100000
100000
100000
100000
100000
100000
100000
100000
100000
100000
100000
100000
100000
100000
100000
100000
100000
100000
100000
100000
100000
100000
100000
100000
100000
100000
100000
100000
100000
100000
100000
100000
100000
100000
100000
100000
100000
100000
100000
100000
100000
100000
100000
100000
100000
100000
100000
100000
100000
100000
100000
100000
100000
100000
100000
100000
100000
100000
99088.779
98604.624
98843.462
98926.509
99160.275
98693.457
98654.688
98779.589
99081.21
99538.538
99811.593
99956.415
99993.572
100000.81
100000.44
100000.14
100000
99999.998
99999.999
100000
100000
100000
100000
100000
100000
100000
100000
100000
100000
100000
100000
100000
100000
100000
100000
100000
100000
100000
100000
100000
100000
100000
100000
100000
100000
100000
100000
100000
100000
100000
100000
100000
100000
100000
100000
100000
100000
100000
100000
100000
100000
100000
100000
100000
100000
100000
100000
100000
100000
100000
100000
100000
100000
100000
100000
100000
100000
100000
100000
100000
99114.758
98642.476
98874.714
98955.855
99182.772
98731.535
98693.447
98811.016
99103.315
99548.267
99815.029
99956.995
99993.607
100000.79
100000.44
100000.13
100000.01
99999.998
99999.999
100000
100000
100000
100000
100000
100000
100000
100000
100000
100000
100000
100000
100000
100000
100000
100000
100000
100000
100000
100000
100000
100000
100000
100000
100000
100000
100000
100000
100000
100000
100000
100000
100000
100000
100000
100000
100000
100000
100000
100000
100000
100000
100000
100000
100000
100000
100000
100000
100000
100000
100000
100000
100000
100000
100000
100000
100000
100000
100000
100000
100000
99140.092
98679.532
98905.402
98984.558
99204.791
98768.705
98731.326
98841.91
99125.137
99557.951
99818.482
99957.592
99993.648
100000.76
100000.43
100000.13
100000.01
99999.998
99999.999
100000
100000
100000
100000
100000
100000
100000
100000
100000
100000
100000
100000
100000
100000
100000
100000
100000
100000
100000
100000
100000
100000
100000
100000
100000
100000
100000
100000
100000
100000
100000
100000
100000
100000
100000
100000
100000
100000
100000
100000
100000
100000
100000
100000
100000
100000
100000
100000
100000
100000
100000
100000
100000
100000
100000
100000
100000
100000
100000
100000
100000
99165.031
98716.182
98935.877
99012.876
99226.505
98805.276
98768.688
98872.523
99146.905
99567.696
99821.995
99958.215
99993.695
100000.73
100000.42
100000.13
100000.01
99999.998
99999.999
100000
100000
100000
100000
100000
100000
100000
100000
100000
100000
100000
100000
100000
100000
100000
100000
100000
100000
100000
100000
100000
100000
100000
100000
100000
100000
100000
100000
100000
100000
100000
100000
100000
100000
100000
100000
100000
100000
100000
100000
100000
100000
100000
100000
100000
100000
100000
100000
100000
100000
100000
100000
100000
100000
100000
100000
100000
100000
100000
100000
100000
99189.663
98752.543
98966.158
99040.968
99248.034
98841.431
98805.643
98903.024
99168.71
99577.553
99825.59
99958.87
99993.749
100000.7
100000.41
100000.13
100000.01
99999.998
99999.999
100000
100000
100000
100000
100000
100000
100000
100000
100000
100000
100000
100000
100000
100000
100000
100000
100000
100000
100000
100000
100000
100000
100000
100000
100000
100000
100000
100000
100000
100000
100000
100000
100000
100000
100000
100000
100000
100000
100000
100000
100000
100000
100000
100000
100000
100000
100000
100000
100000
100000
100000
100000
100000
100000
100000
100000
100000
100000
100000
100000
100000
99214.215
98789.026
98996.622
99069.087
99269.568
98877.473
98842.562
98933.695
99190.788
99587.643
99829.318
99959.57
99993.814
100000.67
100000.4
100000.13
100000.01
99999.998
99999.999
100000
100000
100000
100000
100000
100000
100000
100000
100000
100000
100000
100000
100000
100000
100000
100000
100000
100000
100000
100000
100000
100000
100000
100000
100000
100000
100000
100000
100000
100000
100000
100000
100000
100000
100000
100000
100000
100000
100000
100000
100000
100000
100000
100000
100000
100000
100000
100000
100000
100000
100000
100000
100000
100000
100000
100000
100000
100000
100000
100000
100000
99238.823
98825.802
99027.353
99097.414
99291.232
98913.632
98879.612
98964.727
99213.273
99598.032
99833.208
99960.321
99993.889
100000.65
100000.39
100000.12
100000.01
99999.999
99999.999
100000
100000
100000
100000
100000
100000
100000
100000
100000
100000
100000
100000
100000
100000
100000
100000
100000
100000
100000
100000
100000
100000
100000
100000
100000
100000
100000
100000
100000
100000
100000
100000
100000
100000
100000
100000
100000
100000
100000
100000
100000
100000
100000
100000
100000
100000
100000
100000
100000
100000
100000
100000
100000
100000
100000
100000
100000
100000
100000
100000
100000
99263.704
98863.204
99058.631
99126.191
99313.232
98950.175
98917.125
98996.387
99236.39
99608.841
99837.311
99961.137
99993.977
100000.62
100000.38
100000.12
100000.01
99999.999
99999.999
100000
100000
100000
100000
100000
100000
100000
100000
100000
100000
100000
100000
100000
100000
100000
100000
100000
100000
100000
100000
100000
100000
100000
100000
100000
100000
100000
100000
100000
100000
100000
100000
100000
100000
100000
100000
100000
100000
100000
100000
100000
100000
100000
100000
100000
100000
100000
100000
100000
100000
100000
100000
100000
100000
100000
100000
100000
100000
100000
100000
100000
99289.033
98901.516
99090.661
99155.637
99335.737
98987.368
98955.329
99028.914
99260.309
99620.156
99841.664
99962.027
99994.081
100000.59
100000.37
100000.12
100000.01
99999.999
99999.999
100000
100000
100000
100000
100000
100000
100000
100000
100000
100000
100000
100000
100000
100000
100000
100000
100000
100000
100000
100000
100000
100000
100000
100000
100000
100000
100000
100000
100000
100000
100000
100000
100000
100000
100000
100000
100000
100000
100000
100000
100000
100000
100000
100000
100000
100000
100000
100000
100000
100000
100000
100000
100000
100000
100000
100000
100000
100000
100000
100000
100000
99314.974
98940.986
99123.618
99185.961
99358.905
99025.486
98994.463
99062.539
99285.21
99632.071
99846.308
99963.001
99994.2
100000.57
100000.36
100000.12
100000.01
99999.999
99999.999
100000
100000
100000
100000
100000
100000
100000
100000
100000
100000
100000
100000
100000
100000
100000
100000
100000
100000
100000
100000
100000
100000
100000
100000
100000
100000
100000
100000
100000
100000
100000
100000
100000
100000
100000
100000
100000
100000
100000
100000
100000
100000
100000
100000
100000
100000
100000
100000
100000
100000
100000
100000
100000
100000
100000
100000
100000
100000
100000
100000
100000
99341.767
98981.996
99157.872
99217.383
99382.981
99064.862
99034.872
99097.574
99311.343
99644.721
99851.303
99964.075
99994.339
100000.54
100000.35
100000.11
100000.01
99999.999
99999.999
100000
100000
100000
100000
100000
100000
100000
100000
100000
100000
100000
100000
100000
100000
100000
100000
100000
100000
100000
100000
100000
100000
100000
100000
100000
100000
100000
100000
100000
100000
100000
100000
100000
100000
100000
100000
100000
100000
100000
100000
100000
100000
100000
100000
100000
100000
100000
100000
100000
100000
100000
100000
100000
100000
100000
100000
100000
100000
100000
100000
100000
99369.631
99024.843
99193.644
99250.102
99408.222
99105.932
99076.676
99134.282
99338.921
99658.214
99856.695
99965.26
99994.5
100000.51
100000.34
100000.11
100000.01
99999.999
99999.999
100000
100000
100000
100000
100000
100000
100000
100000
100000
100000
100000
100000
100000
100000
100000
100000
100000
100000
100000
100000
100000
100000
100000
100000
100000
100000
100000
100000
100000
100000
100000
100000
100000
100000
100000
100000
100000
100000
100000
100000
100000
100000
100000
100000
100000
100000
100000
100000
100000
100000
100000
100000
100000
100000
100000
100000
100000
100000
100000
100000
100000
99398.79
99069.867
99231.202
99284.365
99434.843
99148.939
99120.262
99172.962
99368.156
99672.666
99862.534
99966.569
99994.684
100000.48
100000.32
100000.11
100000.01
99999.999
99999.999
100000
100000
100000
100000
100000
100000
100000
100000
100000
100000