/*--------------------------------*- C++ -*----------------------------------*\
| =========                 |                                                 |
| \\      /  F ield         | OpenFOAM: The Open Source CFD Toolbox           |
|  \\    /   O peration     | Version:  2406                                  |
|   \\  /    A nd           | Website:  www.openfoam.com                      |
|    \\/     M anipulation  |                                                 |
\*---------------------------------------------------------------------------*/
FoamFile
{
    version     2.0;
    format      ascii;
    arch        "LSB;label=32;scalar=64";
    class       volScalarField;
    location    "7e-05";
    object      rho;
}
// * * * * * * * * * * * * * * * * * * * * * * * * * * * * * * * * * * * * * //

dimensions      [1 -3 0 0 0 0 0];

internalField   nonuniform List<scalar> 
16000
(
1.1658928
1.1675561
1.1667236
1.1665716
1.1667029
1.1666507
1.1667814
1.1667184
1.1666743
1.1665329
1.1664546
1.166406
1.1663985
1.1663978
1.1663985
1.1663986
1.1663986
1.1663986
1.1663986
1.1663986
1.1663986
1.1663986
1.1663986
1.1663986
1.1663986
1.1663986
1.1663986
1.1663986
1.1663986
1.1663986
1.1663986
1.1663986
1.1663986
1.1663986
1.1663986
1.1663986
1.1663986
1.1663986
1.1663986
1.1663986
1.1663986
1.1663986
1.1663986
1.1663986
1.1663986
1.1663986
1.1663986
1.1663986
1.1663986
1.1663986
1.1663986
1.1663986
1.1663986
1.1663986
1.1663986
1.1663986
1.1663986
1.1663986
1.1663986
1.1663986
1.1663986
1.1663986
1.1663986
1.1663986
1.1663986
1.1663986
1.1663986
1.1663986
1.1663986
1.1663986
1.1663986
1.1663986
1.1663986
1.1663986
1.1663986
1.1663986
1.1663986
1.1663986
1.1663986
1.1663986
1.1666692
1.1678322
1.1675145
1.1671446
1.1672348
1.1672749
1.1674754
1.1674055
1.1672607
1.1668665
1.1666072
1.1664509
1.1664081
1.1663979
1.1663981
1.1663984
1.1663986
1.1663986
1.1663986
1.1663986
1.1663986
1.1663986
1.1663986
1.1663986
1.1663986
1.1663986
1.1663986
1.1663986
1.1663986
1.1663986
1.1663986
1.1663986
1.1663986
1.1663986
1.1663986
1.1663986
1.1663986
1.1663986
1.1663986
1.1663986
1.1663986
1.1663986
1.1663986
1.1663986
1.1663986
1.1663986
1.1663986
1.1663986
1.1663986
1.1663986
1.1663986
1.1663986
1.1663986
1.1663986
1.1663986
1.1663986
1.1663986
1.1663986
1.1663986
1.1663986
1.1663986
1.1663986
1.1663986
1.1663986
1.1663986
1.1663986
1.1663986
1.1663986
1.1663986
1.1663986
1.1663986
1.1663986
1.1663986
1.1663986
1.1663986
1.1663986
1.1663986
1.1663986
1.1663986
1.1663986
1.1674873
1.1681201
1.1684921
1.1676931
1.1677386
1.1679545
1.1681844
1.1681336
1.1679005
1.1672622
1.1668123
1.1665182
1.1664236
1.166399
1.1663978
1.1663982
1.1663986
1.1663986
1.1663986
1.1663986
1.1663986
1.1663986
1.1663986
1.1663986
1.1663986
1.1663986
1.1663986
1.1663986
1.1663986
1.1663986
1.1663986
1.1663986
1.1663986
1.1663986
1.1663986
1.1663986
1.1663986
1.1663986
1.1663986
1.1663986
1.1663986
1.1663986
1.1663986
1.1663986
1.1663986
1.1663986
1.1663986
1.1663986
1.1663986
1.1663986
1.1663986
1.1663986
1.1663986
1.1663986
1.1663986
1.1663986
1.1663986
1.1663986
1.1663986
1.1663986
1.1663986
1.1663986
1.1663986
1.1663986
1.1663986
1.1663986
1.1663986
1.1663986
1.1663986
1.1663986
1.1663986
1.1663986
1.1663986
1.1663986
1.1663986
1.1663986
1.1663986
1.1663986
1.1663986
1.1663986
1.1684349
1.1682631
1.1696008
1.1682107
1.1683062
1.1685979
1.168902
1.1688948
1.168611
1.1677298
1.167064
1.1666033
1.1664445
1.1664005
1.1663974
1.1663979
1.1663985
1.1663986
1.1663986
1.1663986
1.1663986
1.1663986
1.1663986
1.1663986
1.1663986
1.1663986
1.1663986
1.1663986
1.1663986
1.1663986
1.1663986
1.1663986
1.1663986
1.1663986
1.1663986
1.1663986
1.1663986
1.1663986
1.1663986
1.1663986
1.1663986
1.1663986
1.1663986
1.1663986
1.1663986
1.1663986
1.1663986
1.1663986
1.1663986
1.1663986
1.1663986
1.1663986
1.1663986
1.1663986
1.1663986
1.1663986
1.1663986
1.1663986
1.1663986
1.1663986
1.1663986
1.1663986
1.1663986
1.1663986
1.1663986
1.1663986
1.1663986
1.1663986
1.1663986
1.1663986
1.1663986
1.1663986
1.1663986
1.1663986
1.1663986
1.1663986
1.1663986
1.1663986
1.1663986
1.1663986
1.1693317
1.1684787
1.1707096
1.1687208
1.1689424
1.1692448
1.1696851
1.1696223
1.1693773
1.1682618
1.1673654
1.1667107
1.1664729
1.1664031
1.166397
1.1663976
1.1663985
1.1663986
1.1663986
1.1663986
1.1663986
1.1663986
1.1663986
1.1663986
1.1663986
1.1663986
1.1663986
1.1663986
1.1663986
1.1663986
1.1663986
1.1663986
1.1663986
1.1663986
1.1663986
1.1663986
1.1663986
1.1663986
1.1663986
1.1663986
1.1663986
1.1663986
1.1663986
1.1663986
1.1663986
1.1663986
1.1663986
1.1663986
1.1663986
1.1663986
1.1663986
1.1663986
1.1663986
1.1663986
1.1663986
1.1663986
1.1663986
1.1663986
1.1663986
1.1663986
1.1663986
1.1663986
1.1663986
1.1663986
1.1663986
1.1663986
1.1663986
1.1663986
1.1663986
1.1663986
1.1663986
1.1663986
1.1663986
1.1663986
1.1663986
1.1663986
1.1663986
1.1663986
1.1663986
1.1663986
1.1702888
1.1686008
1.1718853
1.1692538
1.1696298
1.1698861
1.170395
1.1704499
1.1702172
1.1688585
1.1677179
1.1668432
1.16651
1.1664074
1.1663967
1.1663972
1.1663984
1.1663986
1.1663986
1.1663986
1.1663986
1.1663986
1.1663986
1.1663986
1.1663986
1.1663986
1.1663986
1.1663986
1.1663986
1.1663986
1.1663986
1.1663986
1.1663986
1.1663986
1.1663986
1.1663986
1.1663986
1.1663986
1.1663986
1.1663986
1.1663986
1.1663986
1.1663986
1.1663986
1.1663986
1.1663986
1.1663986
1.1663986
1.1663986
1.1663986
1.1663986
1.1663986
1.1663986
1.1663986
1.1663986
1.1663986
1.1663986
1.1663986
1.1663986
1.1663986
1.1663986
1.1663986
1.1663986
1.1663986
1.1663986
1.1663986
1.1663986
1.1663986
1.1663986
1.1663986
1.1663986
1.1663986
1.1663986
1.1663986
1.1663986
1.1663986
1.1663986
1.1663986
1.1663986
1.1663986
1.1713328
1.1686407
1.1731455
1.1698155
1.1703668
1.1705312
1.1710621
1.1713534
1.1711188
1.1695214
1.1681235
1.1670025
1.1665569
1.1664135
1.1663965
1.1663968
1.1663983
1.1663986
1.1663986
1.1663986
1.1663986
1.1663986
1.1663986
1.1663986
1.1663986
1.1663986
1.1663986
1.1663986
1.1663986
1.1663986
1.1663986
1.1663986
1.1663986
1.1663986
1.1663986
1.1663986
1.1663986
1.1663986
1.1663986
1.1663986
1.1663986
1.1663986
1.1663986
1.1663986
1.1663986
1.1663986
1.1663986
1.1663986
1.1663986
1.1663986
1.1663986
1.1663986
1.1663986
1.1663986
1.1663986
1.1663986
1.1663986
1.1663986
1.1663986
1.1663986
1.1663986
1.1663986
1.1663986
1.1663986
1.1663986
1.1663986
1.1663986
1.1663986
1.1663986
1.1663986
1.1663986
1.1663986
1.1663986
1.1663986
1.1663986
1.1663986
1.1663986
1.1663986
1.1663986
1.1663986
1.1724954
1.1685806
1.174494
1.170403
1.1711576
1.1711839
1.1716739
1.1723852
1.1720546
1.1702493
1.1685832
1.1671898
1.1666145
1.1664219
1.1663965
1.1663963
1.1663981
1.1663986
1.1663987
1.1663986
1.1663986
1.1663986
1.1663986
1.1663986
1.1663986
1.1663986
1.1663986
1.1663986
1.1663986
1.1663986
1.1663986
1.1663986
1.1663986
1.1663986
1.1663986
1.1663986
1.1663986
1.1663986
1.1663986
1.1663986
1.1663986
1.1663986
1.1663986
1.1663986
1.1663986
1.1663986
1.1663986
1.1663986
1.1663986
1.1663986
1.1663986
1.1663986
1.1663986
1.1663986
1.1663986
1.1663986
1.1663986
1.1663986
1.1663986
1.1663986
1.1663986
1.1663986
1.1663986
1.1663986
1.1663986
1.1663986
1.1663986
1.1663986
1.1663986
1.1663986
1.1663986
1.1663986
1.1663986
1.1663986
1.1663986
1.1663986
1.1663986
1.1663986
1.1663986
1.1663986
1.1737922
1.1683907
1.1759545
1.1710171
1.1719975
1.1718666
1.1723132
1.1734485
1.1730414
1.1710423
1.1690982
1.1674068
1.1666836
1.1664329
1.1663967
1.1663958
1.1663979
1.1663986
1.1663987
1.1663986
1.1663986
1.1663986
1.1663986
1.1663986
1.1663986
1.1663986
1.1663986
1.1663986
1.1663986
1.1663986
1.1663986
1.1663986
1.1663986
1.1663986
1.1663986
1.1663986
1.1663986
1.1663986
1.1663986
1.1663986
1.1663986
1.1663986
1.1663986
1.1663986
1.1663986
1.1663986
1.1663986
1.1663986
1.1663986
1.1663986
1.1663986
1.1663986
1.1663986
1.1663986
1.1663986
1.1663986
1.1663986
1.1663986
1.1663986
1.1663986
1.1663986
1.1663986
1.1663986
1.1663986
1.1663986
1.1663986
1.1663986
1.1663986
1.1663986
1.1663986
1.1663986
1.1663986
1.1663986
1.1663986
1.1663986
1.1663986
1.1663986
1.1663986
1.1663986
1.1663986
1.1752593
1.1680209
1.1775553
1.1716524
1.1728927
1.172594
1.1729831
1.174519
1.1741068
1.1719037
1.1696705
1.1676554
1.1667652
1.1664469
1.1663972
1.1663952
1.1663977
1.1663985
1.1663987
1.1663986
1.1663986
1.1663986
1.1663986
1.1663986
1.1663986
1.1663986
1.1663986
1.1663986
1.1663986
1.1663986
1.1663986
1.1663986
1.1663986
1.1663986
1.1663986
1.1663986
1.1663986
1.1663986
1.1663986
1.1663986
1.1663986
1.1663986
1.1663986
1.1663986
1.1663986
1.1663986
1.1663986
1.1663986
1.1663986
1.1663986
1.1663986
1.1663986
1.1663986
1.1663986
1.1663986
1.1663986
1.1663986
1.1663986
1.1663986
1.1663986
1.1663986
1.1663986
1.1663986
1.1663986
1.1663986
1.1663986
1.1663986
1.1663986
1.1663986
1.1663986
1.1663986
1.1663986
1.1663986
1.1663986
1.1663986
1.1663986
1.1663986
1.1663986
1.1663986
1.1663986
1.17697
1.1673713
1.1793278
1.1723172
1.1738427
1.1733796
1.1736848
1.1755986
1.1752628
1.1728351
1.170304
1.1679381
1.1668606
1.1664642
1.1663981
1.1663945
1.1663974
1.1663985
1.1663987
1.1663986
1.1663986
1.1663986
1.1663986
1.1663986
1.1663986
1.1663986
1.1663986
1.1663986
1.1663986
1.1663986
1.1663986
1.1663986
1.1663986
1.1663986
1.1663986
1.1663986
1.1663986
1.1663986
1.1663986
1.1663986
1.1663986
1.1663986
1.1663986
1.1663986
1.1663986
1.1663986
1.1663986
1.1663986
1.1663986
1.1663986
1.1663986
1.1663986
1.1663986
1.1663986
1.1663986
1.1663986
1.1663986
1.1663986
1.1663986
1.1663986
1.1663986
1.1663986
1.1663986
1.1663986
1.1663986
1.1663986
1.1663986
1.1663986
1.1663986
1.1663986
1.1663986
1.1663986
1.1663986
1.1663986
1.1663986
1.1663986
1.1663986
1.1663986
1.1663986
1.1663986
1.1789559
1.1663712
1.1812983
1.17303
1.1748483
1.1742383
1.1744211
1.1767214
1.176508
1.1738354
1.1710047
1.1682582
1.1669715
1.1664854
1.1663995
1.1663938
1.1663971
1.1663984
1.1663987
1.1663986
1.1663986
1.1663986
1.1663986
1.1663986
1.1663986
1.1663986
1.1663986
1.1663986
1.1663986
1.1663986
1.1663986
1.1663986
1.1663986
1.1663986
1.1663986
1.1663986
1.1663986
1.1663986
1.1663986
1.1663986
1.1663986
1.1663986
1.1663986
1.1663986
1.1663986
1.1663986
1.1663986
1.1663986
1.1663986
1.1663986
1.1663986
1.1663986
1.1663986
1.1663986
1.1663986
1.1663986
1.1663986
1.1663986
1.1663986
1.1663986
1.1663986
1.1663986
1.1663986
1.1663986
1.1663986
1.1663986
1.1663986
1.1663986
1.1663986
1.1663986
1.1663986
1.1663986
1.1663986
1.1663986
1.1663986
1.1663986
1.1663986
1.1663986
1.1663986
1.1663986
1.1811253
1.1651416
1.1835155
1.1737567
1.1759038
1.1751602
1.1751848
1.1779115
1.1778511
1.1749105
1.1717796
1.1686203
1.1670999
1.1665109
1.1664015
1.166393
1.1663968
1.1663984
1.1663987
1.1663987
1.1663986
1.1663986
1.1663986
1.1663986
1.1663986
1.1663986
1.1663986
1.1663986
1.1663986
1.1663986
1.1663986
1.1663986
1.1663986
1.1663986
1.1663986
1.1663986
1.1663986
1.1663986
1.1663986
1.1663986
1.1663986
1.1663986
1.1663986
1.1663986
1.1663986
1.1663986
1.1663986
1.1663986
1.1663986
1.1663986
1.1663986
1.1663986
1.1663986
1.1663986
1.1663986
1.1663986
1.1663986
1.1663986
1.1663986
1.1663986
1.1663986
1.1663986
1.1663986
1.1663986
1.1663986
1.1663986
1.1663986
1.1663986
1.1663986
1.1663986
1.1663986
1.1663986
1.1663986
1.1663986
1.1663986
1.1663986
1.1663986
1.1663986
1.1663986
1.1663986
1.1834164
1.1637655
1.1859912
1.1744873
1.1770337
1.1761437
1.1759763
1.1791773
1.1792833
1.1760859
1.1726393
1.1690306
1.1672485
1.1665417
1.1664043
1.1663922
1.1663964
1.1663983
1.1663987
1.1663987
1.1663986
1.1663986
1.1663986
1.1663986
1.1663986
1.1663986
1.1663986
1.1663986
1.1663986
1.1663986
1.1663986
1.1663986
1.1663986
1.1663986
1.1663986
1.1663986
1.1663986
1.1663986
1.1663986
1.1663986
1.1663986
1.1663986
1.1663986
1.1663986
1.1663986
1.1663986
1.1663986
1.1663986
1.1663986
1.1663986
1.1663986
1.1663986
1.1663986
1.1663986
1.1663986
1.1663986
1.1663986
1.1663986
1.1663986
1.1663986
1.1663986
1.1663986
1.1663986
1.1663986
1.1663986
1.1663986
1.1663986
1.1663986
1.1663986
1.1663986
1.1663986
1.1663986
1.1663986
1.1663986
1.1663986
1.1663986
1.1663986
1.1663986
1.1663986
1.1663986
1.1859399
1.1621291
1.1887553
1.175246
1.1782595
1.177217
1.1767975
1.1805231
1.1808084
1.1773721
1.1735956
1.1694965
1.1674204
1.1665786
1.1664079
1.1663912
1.1663959
1.1663982
1.1663987
1.1663987
1.1663986
1.1663986
1.1663986
1.1663986
1.1663986
1.1663986
1.1663986
1.1663986
1.1663986
1.1663986
1.1663986
1.1663986
1.1663986
1.1663986
1.1663986
1.1663986
1.1663986
1.1663986
1.1663986
1.1663986
1.1663986
1.1663986
1.1663986
1.1663986
1.1663986
1.1663986
1.1663986
1.1663986
1.1663986
1.1663986
1.1663986
1.1663986
1.1663986
1.1663986
1.1663986
1.1663986
1.1663986
1.1663986
1.1663986
1.1663986
1.1663986
1.1663986
1.1663986
1.1663986
1.1663986
1.1663986
1.1663986
1.1663986
1.1663986
1.1663986
1.1663986
1.1663986
1.1663986
1.1663986
1.1663986
1.1663986
1.1663986
1.1663986
1.1663986
1.1663986
1.1887283
1.1601492
1.1918401
1.1760343
1.179612
1.1784093
1.1776563
1.1819583
1.1824304
1.1787803
1.174661
1.1700259
1.1676196
1.1666227
1.1664125
1.1663903
1.1663954
1.1663981
1.1663987
1.1663987
1.1663986
1.1663986
1.1663986
1.1663986
1.1663986
1.1663986
1.1663986
1.1663986
1.1663986
1.1663986
1.1663986
1.1663986
1.1663986
1.1663986
1.1663986
1.1663986
1.1663986
1.1663986
1.1663986
1.1663986
1.1663986
1.1663986
1.1663986
1.1663986
1.1663986
1.1663986
1.1663986
1.1663986
1.1663986
1.1663986
1.1663986
1.1663986
1.1663986
1.1663986
1.1663986
1.1663986
1.1663986
1.1663986
1.1663986
1.1663986
1.1663986
1.1663986
1.1663986
1.1663986
1.1663986
1.1663986
1.1663986
1.1663986
1.1663986
1.1663986
1.1663986
1.1663986
1.1663986
1.1663986
1.1663986
1.1663986
1.1663986
1.1663986
1.1663986
1.1663986
1.1918059
1.1580306
1.1953075
1.1768822
1.1811317
1.1797578
1.1785835
1.1835225
1.1841753
1.1803319
1.1758503
1.1706271
1.1678495
1.1666751
1.1664185
1.1663892
1.1663948
1.166398
1.1663987
1.1663987
1.1663986
1.1663986
1.1663986
1.1663986
1.1663986
1.1663986
1.1663986
1.1663986
1.1663986
1.1663986
1.1663986
1.1663986
1.1663986
1.1663986
1.1663986
1.1663986
1.1663986
1.1663986
1.1663986
1.1663986
1.1663986
1.1663986
1.1663986
1.1663986
1.1663986
1.1663986
1.1663986
1.1663986
1.1663986
1.1663986
1.1663986
1.1663986
1.1663986
1.1663986
1.1663986
1.1663986
1.1663986
1.1663986
1.1663986
1.1663986
1.1663986
1.1663986
1.1663986
1.1663986
1.1663986
1.1663986
1.1663986
1.1663986
1.1663986
1.1663986
1.1663986
1.1663986
1.1663986
1.1663986
1.1663986
1.1663986
1.1663986
1.1663986
1.1663986
1.1663986
1.1953228
1.1557473
1.1991084
1.1776636
1.1828208
1.181284
1.1796471
1.1852868
1.186133
1.1820767
1.1771879
1.1713089
1.1681127
1.1667362
1.1664257
1.1663881
1.1663941
1.1663978
1.1663986
1.1663987
1.1663986
1.1663986
1.1663986
1.1663986
1.1663986
1.1663986
1.1663986
1.1663986
1.1663986
1.1663986
1.1663986
1.1663986
1.1663986
1.1663986
1.1663986
1.1663986
1.1663986
1.1663986
1.1663986
1.1663986
1.1663986
1.1663986
1.1663986
1.1663986
1.1663986
1.1663986
1.1663986
1.1663986
1.1663986
1.1663986
1.1663986
1.1663986
1.1663986
1.1663986
1.1663986
1.1663986
1.1663986
1.1663986
1.1663986
1.1663986
1.1663986
1.1663986
1.1663986
1.1663986
1.1663986
1.1663986
1.1663986
1.1663986
1.1663986
1.1663986
1.1663986
1.1663986
1.1663986
1.1663986
1.1663986
1.1663986
1.1663986
1.1663986
1.1663986
1.1663986
1.1993002
1.1531395
1.2034281
1.1787637
1.1847876
1.1828923
1.1808186
1.187303
1.188383
1.1840879
1.1787023
1.1720789
1.1684092
1.1668055
1.166434
1.166387
1.1663934
1.1663976
1.1663986
1.1663987
1.1663986
1.1663986
1.1663986
1.1663986
1.1663986
1.1663986
1.1663986
1.1663986
1.1663986
1.1663986
1.1663986
1.1663986
1.1663986
1.1663986
1.1663986
1.1663986
1.1663986
1.1663986
1.1663986
1.1663986
1.1663986
1.1663986
1.1663986
1.1663986
1.1663986
1.1663986
1.1663986
1.1663986
1.1663986
1.1663986
1.1663986
1.1663986
1.1663986
1.1663986
1.1663986
1.1663986
1.1663986
1.1663986
1.1663986
1.1663986
1.1663986
1.1663986
1.1663986
1.1663986
1.1663986
1.1663986
1.1663986
1.1663986
1.1663986
1.1663986
1.1663986
1.1663986
1.1663986
1.1663986
1.1663986
1.1663986
1.1663986
1.1663986
1.1663986
1.1663986
1.2045566
1.1495055
1.2089899
1.1791319
1.1861821
1.1846462
1.1820839
1.1895634
1.1908846
1.1863422
1.1803796
1.1729274
1.1687337
1.166881
1.1664431
1.1663857
1.1663926
1.1663975
1.1663986
1.1663987
1.1663986
1.1663986
1.1663986
1.1663986
1.1663986
1.1663986
1.1663986
1.1663986
1.1663986
1.1663986
1.1663986
1.1663986
1.1663986
1.1663986
1.1663986
1.1663986
1.1663986
1.1663986
1.1663986
1.1663986
1.1663986
1.1663986
1.1663986
1.1663986
1.1663986
1.1663986
1.1663986
1.1663986
1.1663986
1.1663986
1.1663986
1.1663986
1.1663986
1.1663986
1.1663986
1.1663986
1.1663986
1.1663986
1.1663986
1.1663986
1.1663986
1.1663986
1.1663986
1.1663986
1.1663986
1.1663986
1.1663986
1.1663986
1.1663986
1.1663986
1.1663986
1.1663986
1.1663986
1.1663986
1.1663986
1.1663986
1.1663986
1.1663986
1.1663986
1.1663986
1.2073202
1.144309
1.2146945
1.180001
1.1882534
1.1871832
1.1836921
1.1919092
1.1934581
1.1886215
1.1821174
1.1738019
1.1690672
1.1669571
1.1664519
1.1663844
1.1663919
1.1663973
1.1663986
1.1663987
1.1663986
1.1663986
1.1663986
1.1663986
1.1663986
1.1663986
1.1663986
1.1663986
1.1663986
1.1663986
1.1663986
1.1663986
1.1663986
1.1663986
1.1663986
1.1663986
1.1663986
1.1663986
1.1663986
1.1663986
1.1663986
1.1663986
1.1663986
1.1663986
1.1663986
1.1663986
1.1663986
1.1663986
1.1663986
1.1663986
1.1663986
1.1663986
1.1663986
1.1663986
1.1663986
1.1663986
1.1663986
1.1663986
1.1663986
1.1663986
1.1663986
1.1663986
1.1663986
1.1663986
1.1663986
1.1663986
1.1663986
1.1663986
1.1663986
1.1663986
1.1663986
1.1663986
1.1663986
1.1663986
1.1663986
1.1663986
1.1663986
1.1663986
1.1663986
1.1663986
1.2100294
1.139999
1.2207961
1.1813637
1.1910376
1.1896306
1.1852709
1.1942867
1.1959371
1.1907914
1.1837634
1.1746085
1.1693665
1.1670219
1.1664586
1.166383
1.1663912
1.1663972
1.1663986
1.1663987
1.1663986
1.1663986
1.1663986
1.1663986
1.1663986
1.1663986
1.1663986
1.1663986
1.1663986
1.1663986
1.1663986
1.1663986
1.1663986
1.1663986
1.1663986
1.1663986
1.1663986
1.1663986
1.1663986
1.1663986
1.1663986
1.1663986
1.1663986
1.1663986
1.1663986
1.1663986
1.1663986
1.1663986
1.1663986
1.1663986
1.1663986
1.1663986
1.1663986
1.1663986
1.1663986
1.1663986
1.1663986
1.1663986
1.1663986
1.1663986
1.1663986
1.1663986
1.1663986
1.1663986
1.1663986
1.1663986
1.1663986
1.1663986
1.1663986
1.1663986
1.1663986
1.1663986
1.1663986
1.1663986
1.1663986
1.1663986
1.1663986
1.1663986
1.1663986
1.1663986
1.2147658
1.1372801
1.2265614
1.1820918
1.1936182
1.1917788
1.1869545
1.1969203
1.1982919
1.192796
1.1851582
1.1752192
1.1695715
1.1670575
1.1664606
1.1663816
1.1663907
1.1663971
1.1663986
1.1663987
1.1663986
1.1663986
1.1663986
1.1663986
1.1663986
1.1663986
1.1663986
1.1663986
1.1663986
1.1663986
1.1663986
1.1663986
1.1663986
1.1663986
1.1663986
1.1663986
1.1663986
1.1663986
1.1663986
1.1663986
1.1663986
1.1663986
1.1663986
1.1663986
1.1663986
1.1663986
1.1663986
1.1663986
1.1663986
1.1663986
1.1663986
1.1663986
1.1663986
1.1663986
1.1663986
1.1663986
1.1663986
1.1663986
1.1663986
1.1663986
1.1663986
1.1663986
1.1663986
1.1663986
1.1663986
1.1663986
1.1663986
1.1663986
1.1663986
1.1663986
1.1663986
1.1663986
1.1663986
1.1663986
1.1663986
1.1663986
1.1663986
1.1663986
1.1663986
1.1663986
1.2171403
1.1363359
1.2321574
1.1821655
1.1961169
1.1935634
1.1887068
1.1996921
1.2001862
1.1944794
1.186094
1.1754997
1.1696226
1.167048
1.1664553
1.1663804
1.1663906
1.1663971
1.1663986
1.1663987
1.1663986
1.1663986
1.1663986
1.1663986
1.1663986
1.1663986
1.1663986
1.1663986
1.1663986
1.1663986
1.1663986
1.1663986
1.1663986
1.1663986
1.1663986
1.1663986
1.1663986
1.1663986
1.1663986
1.1663986
1.1663986
1.1663986
1.1663986
1.1663986
1.1663986
1.1663986
1.1663986
1.1663986
1.1663986
1.1663986
1.1663986
1.1663986
1.1663986
1.1663986
1.1663986
1.1663986
1.1663986
1.1663986
1.1663986
1.1663986
1.1663986
1.1663986
1.1663986
1.1663986
1.1663986
1.1663986
1.1663986
1.1663986
1.1663986
1.1663986
1.1663986
1.1663986
1.1663986
1.1663986
1.1663986
1.1663986
1.1663986
1.1663986
1.1663986
1.1663986
1.2199303
1.1345882
1.2372467
1.1818502
1.197926
1.194629
1.1903608
1.2019134
1.2016873
1.1956601
1.1864063
1.1753592
1.1694908
1.1669887
1.1664431
1.1663797
1.1663909
1.1663973
1.1663987
1.1663987
1.1663986
1.1663986
1.1663986
1.1663986
1.1663986
1.1663986
1.1663986
1.1663986
1.1663986
1.1663986
1.1663986
1.1663986
1.1663986
1.1663986
1.1663986
1.1663986
1.1663986
1.1663986
1.1663986
1.1663986
1.1663986
1.1663986
1.1663986
1.1663986
1.1663986
1.1663986
1.1663986
1.1663986
1.1663986
1.1663986
1.1663986
1.1663986
1.1663986
1.1663986
1.1663986
1.1663986
1.1663986
1.1663986
1.1663986
1.1663986
1.1663986
1.1663986
1.1663986
1.1663986
1.1663986
1.1663986
1.1663986
1.1663986
1.1663986
1.1663986
1.1663986
1.1663986
1.1663986
1.1663986
1.1663986
1.1663986
1.1663986
1.1663986
1.1663986
1.1663986
1.2271918
1.1290221
1.2405281
1.1828179
1.1973074
1.1950665
1.1916931
1.2027531
1.2035439
1.1959939
1.1860015
1.174813
1.1691946
1.166891
1.1664268
1.1663797
1.1663916
1.1663976
1.1663987
1.1663987
1.1663986
1.1663986
1.1663986
1.1663986
1.1663986
1.1663986
1.1663986
1.1663986
1.1663986
1.1663986
1.1663986
1.1663986
1.1663986
1.1663986
1.1663986
1.1663986
1.1663986
1.1663986
1.1663986
1.1663986
1.1663986
1.1663986
1.1663986
1.1663986
1.1663986
1.1663986
1.1663986
1.1663986
1.1663986
1.1663986
1.1663986
1.1663986
1.1663986
1.1663986
1.1663986
1.1663986
1.1663986
1.1663986
1.1663986
1.1663986
1.1663986
1.1663986
1.1663986
1.1663986
1.1663986
1.1663986
1.1663986
1.1663986
1.1663986
1.1663986
1.1663986
1.1663986
1.1663986
1.1663986
1.1663986
1.1663986
1.1663986
1.1663986
1.1663986
1.1663986
1.2333026
1.1236958
1.2397291
1.1836852
1.1952878
1.1946721
1.1923168
1.203809
1.2045512
1.1956057
1.1850822
1.1740463
1.1688283
1.1667861
1.1664116
1.1663805
1.1663926
1.1663978
1.1663987
1.1663987
1.1663986
1.1663986
1.1663986
1.1663986
1.1663986
1.1663986
1.1663986
1.1663986
1.1663986
1.1663986
1.1663986
1.1663986
1.1663986
1.1663986
1.1663986
1.1663986
1.1663986
1.1663986
1.1663986
1.1663986
1.1663986
1.1663986
1.1663986
1.1663986
1.1663986
1.1663986
1.1663986
1.1663986
1.1663986
1.1663986
1.1663986
1.1663986
1.1663986
1.1663986
1.1663986
1.1663986
1.1663986
1.1663986
1.1663986
1.1663986
1.1663986
1.1663986
1.1663986
1.1663986
1.1663986
1.1663986
1.1663986
1.1663986
1.1663986
1.1663986
1.1663986
1.1663986
1.1663986
1.1663986
1.1663986
1.1663986
1.1663986
1.1663986
1.1663986
1.1663986
1.2295497
1.1272806
1.2357685
1.181952
1.1934927
1.19423
1.1927141
1.2047184
1.2049704
1.1949042
1.1841084
1.1733568
1.1685257
1.1667081
1.1664016
1.1663815
1.1663935
1.166398
1.1663987
1.1663987
1.1663986
1.1663986
1.1663986
1.1663986
1.1663986
1.1663986
1.1663986
1.1663986
1.1663986
1.1663986
1.1663986
1.1663986
1.1663986
1.1663986
1.1663986
1.1663986
1.1663986
1.1663986
1.1663986
1.1663986
1.1663986
1.1663986
1.1663986
1.1663986
1.1663986
1.1663986
1.1663986
1.1663986
1.1663986
1.1663986
1.1663986
1.1663986
1.1663986
1.1663986
1.1663986
1.1663986
1.1663986
1.1663986
1.1663986
1.1663986
1.1663986
1.1663986
1.1663986
1.1663986
1.1663986
1.1663986
1.1663986
1.1663986
1.1663986
1.1663986
1.1663986
1.1663986
1.1663986
1.1663986
1.1663986
1.1663986
1.1663986
1.1663986
1.1663986
1.1663986
1.2247003
1.1377731
1.229025
1.1800431
1.1913624
1.1947069
1.1936446
1.2045662
1.2052594
1.1943927
1.1836426
1.1730567
1.1684059
1.1666804
1.1663982
1.166382
1.1663938
1.1663981
1.1663987
1.1663987
1.1663986
1.1663986
1.1663986
1.1663986
1.1663986
1.1663986
1.1663986
1.1663986
1.1663986
1.1663986
1.1663986
1.1663986
1.1663986
1.1663986
1.1663986
1.1663986
1.1663986
1.1663986
1.1663986
1.1663986
1.1663986
1.1663986
1.1663986
1.1663986
1.1663986
1.1663986
1.1663986
1.1663986
1.1663986
1.1663986
1.1663986
1.1663986
1.1663986
1.1663986
1.1663986
1.1663986
1.1663986
1.1663986
1.1663986
1.1663986
1.1663986
1.1663986
1.1663986
1.1663986
1.1663986
1.1663986
1.1663986
1.1663986
1.1663986
1.1663986
1.1663986
1.1663986
1.1663986
1.1663986
1.1663986
1.1663986
1.1663986
1.1663986
1.1663986
1.1663986
1.2210729
1.1411655
1.224692
1.1799642
1.1898909
1.1954789
1.1939803
1.2039609
1.2056104
1.1947555
1.1842438
1.1734937
1.1686104
1.1667418
1.1664071
1.1663816
1.1663931
1.1663979
1.1663987
1.1663987
1.1663986
1.1663986
1.1663986
1.1663986
1.1663986
1.1663986
1.1663986
1.1663986
1.1663986
1.1663986
1.1663986
1.1663986
1.1663986
1.1663986
1.1663986
1.1663986
1.1663986
1.1663986
1.1663986
1.1663986
1.1663986
1.1663986
1.1663986
1.1663986
1.1663986
1.1663986
1.1663986
1.1663986
1.1663986
1.1663986
1.1663986
1.1663986
1.1663986
1.1663986
1.1663986
1.1663986
1.1663986
1.1663986
1.1663986
1.1663986
1.1663986
1.1663986
1.1663986
1.1663986
1.1663986
1.1663986
1.1663986
1.1663986
1.1663986
1.1663986
1.1663986
1.1663986
1.1663986
1.1663986
1.1663986
1.1663986
1.1663986
1.1663986
1.1663986
1.1663986
1.150508
1.1706858
1.1538796
1.1603153
1.1612162
1.1579552
1.1571073
1.1579436
1.1600603
1.163344
1.1652568
1.1661704
1.1663707
1.1664051
1.1664013
1.1663993
1.1663986
1.1663986
1.1663986
1.1663986
1.1663986
1.1663986
1.1663986
1.1663986
1.1663986
1.1663986
1.1663986
1.1663986
1.1663986
1.1663986
1.1663986
1.1663986
1.1663986
1.1663986
1.1663986
1.1663986
1.1663986
1.1663986
1.1663986
1.1663986
1.1663986
1.1663986
1.1663986
1.1663986
1.1663986
1.1663986
1.1663986
1.1663986
1.1663986
1.1663986
1.1663986
1.1663986
1.1663986
1.1663986
1.1663986
1.1663986
1.1663986
1.1663986
1.1663986
1.1663986
1.1663986
1.1663986
1.1663986
1.1663986
1.1663986
1.1663986
1.1663986
1.1663986
1.1663986
1.1663986
1.1663986
1.1663986
1.1663986
1.1663986
1.1663986
1.1663986
1.1663986
1.1663986
1.1663986
1.1663986
1.1509094
1.1702274
1.1535765
1.1604552
1.1607149
1.1573437
1.156826
1.1578556
1.1598655
1.1631355
1.1650794
1.1661006
1.1663563
1.1664049
1.1664018
1.1663996
1.1663987
1.1663986
1.1663986
1.1663986
1.1663986
1.1663986
1.1663986
1.1663986
1.1663986
1.1663986
1.1663986
1.1663986
1.1663986
1.1663986
1.1663986
1.1663986
1.1663986
1.1663986
1.1663986
1.1663986
1.1663986
1.1663986
1.1663986
1.1663986
1.1663986
1.1663986
1.1663986
1.1663986
1.1663986
1.1663986
1.1663986
1.1663986
1.1663986
1.1663986
1.1663986
1.1663986
1.1663986
1.1663986
1.1663986
1.1663986
1.1663986
1.1663986
1.1663986
1.1663986
1.1663986
1.1663986
1.1663986
1.1663986
1.1663986
1.1663986
1.1663986
1.1663986
1.1663986
1.1663986
1.1663986
1.1663986
1.1663986
1.1663986
1.1663986
1.1663986
1.1663986
1.1663986
1.1663986
1.1663986
1.1506899
1.1692252
1.1533743
1.1599989
1.1603645
1.1571778
1.1567876
1.1579235
1.1599777
1.1631931
1.1650974
1.1661007
1.1663555
1.1664045
1.1664017
1.1663996
1.1663987
1.1663986
1.1663986
1.1663986
1.1663986
1.1663986
1.1663986
1.1663986
1.1663986
1.1663986
1.1663986
1.1663986
1.1663986
1.1663986
1.1663986
1.1663986
1.1663986
1.1663986
1.1663986
1.1663986
1.1663986
1.1663986
1.1663986
1.1663986
1.1663986
1.1663986
1.1663986
1.1663986
1.1663986
1.1663986
1.1663986
1.1663986
1.1663986
1.1663986
1.1663986
1.1663986
1.1663986
1.1663986
1.1663986
1.1663986
1.1663986
1.1663986
1.1663986
1.1663986
1.1663986
1.1663986
1.1663986
1.1663986
1.1663986
1.1663986
1.1663986
1.1663986
1.1663986
1.1663986
1.1663986
1.1663986
1.1663986
1.1663986
1.1663986
1.1663986
1.1663986
1.1663986
1.1663986
1.1663986
1.1511313
1.1691096
1.1537404
1.1602089
1.1605279
1.1574557
1.1571007
1.1581397
1.1601379
1.1632618
1.1651228
1.1661052
1.1663559
1.1664042
1.1664017
1.1663995
1.1663987
1.1663986
1.1663986
1.1663986
1.1663986
1.1663986
1.1663986
1.1663986
1.1663986
1.1663986
1.1663986
1.1663986
1.1663986
1.1663986
1.1663986
1.1663986
1.1663986
1.1663986
1.1663986
1.1663986
1.1663986
1.1663986
1.1663986
1.1663986
1.1663986
1.1663986
1.1663986
1.1663986
1.1663986
1.1663986
1.1663986
1.1663986
1.1663986
1.1663986
1.1663986
1.1663986
1.1663986
1.1663986
1.1663986
1.1663986
1.1663986
1.1663986
1.1663986
1.1663986
1.1663986
1.1663986
1.1663986
1.1663986
1.1663986
1.1663986
1.1663986
1.1663986
1.1663986
1.1663986
1.1663986
1.1663986
1.1663986
1.1663986
1.1663986
1.1663986
1.1663986
1.1663986
1.1663986
1.1663986
1.1515575
1.1690099
1.1540917
1.1603801
1.1606893
1.1577209
1.1573727
1.1583558
1.1602913
1.1633289
1.1651464
1.1661091
1.1663562
1.166404
1.1664016
1.1663995
1.1663987
1.1663986
1.1663986
1.1663986
1.1663986
1.1663986
1.1663986
1.1663986
1.1663986
1.1663986
1.1663986
1.1663986
1.1663986
1.1663986
1.1663986
1.1663986
1.1663986
1.1663986
1.1663986
1.1663986
1.1663986
1.1663986
1.1663986
1.1663986
1.1663986
1.1663986
1.1663986
1.1663986
1.1663986
1.1663986
1.1663986
1.1663986
1.1663986
1.1663986
1.1663986
1.1663986
1.1663986
1.1663986
1.1663986
1.1663986
1.1663986
1.1663986
1.1663986
1.1663986
1.1663986
1.1663986
1.1663986
1.1663986
1.1663986
1.1663986
1.1663986
1.1663986
1.1663986
1.1663986
1.1663986
1.1663986
1.1663986
1.1663986
1.1663986
1.1663986
1.1663986
1.1663986
1.1663986
1.1663986
1.1519806
1.1689244
1.154438
1.1605462
1.1608463
1.1579741
1.1576332
1.1585629
1.1604386
1.1633935
1.1651691
1.1661129
1.1663564
1.1664039
1.1664015
1.1663995
1.1663987
1.1663986
1.1663986
1.1663986
1.1663986
1.1663986
1.1663986
1.1663986
1.1663986
1.1663986
1.1663986
1.1663986
1.1663986
1.1663986
1.1663986
1.1663986
1.1663986
1.1663986
1.1663986
1.1663986
1.1663986
1.1663986
1.1663986
1.1663986
1.1663986
1.1663986
1.1663986
1.1663986
1.1663986
1.1663986
1.1663986
1.1663986
1.1663986
1.1663986
1.1663986
1.1663986
1.1663986
1.1663986
1.1663986
1.1663986
1.1663986
1.1663986
1.1663986
1.1663986
1.1663986
1.1663986
1.1663986
1.1663986
1.1663986
1.1663986
1.1663986
1.1663986
1.1663986
1.1663986
1.1663986
1.1663986
1.1663986
1.1663986
1.1663986
1.1663986
1.1663986
1.1663986
1.1663986
1.1663986
1.1523893
1.1688412
1.1547727
1.1607064
1.1609968
1.158219
1.1578863
1.1587648
1.160583
1.1634571
1.1651917
1.1661168
1.1663566
1.1664037
1.1664015
1.1663995
1.1663987
1.1663986
1.1663986
1.1663986
1.1663986
1.1663986
1.1663986
1.1663986
1.1663986
1.1663986
1.1663986
1.1663986
1.1663986
1.1663986
1.1663986
1.1663986
1.1663986
1.1663986
1.1663986