/*--------------------------------*- C++ -*----------------------------------*\
| =========                 |                                                 |
| \\      /  F ield         | OpenFOAM: The Open Source CFD Toolbox           |
|  \\    /   O peration     | Version:  2406                                  |
|   \\  /    A nd           | Website:  www.openfoam.com                      |
|    \\/     M anipulation  |                                                 |
\*---------------------------------------------------------------------------*/
FoamFile
{
    version     2.0;
    format      ascii;
    arch        "LSB;label=32;scalar=64";
    class       volVectorField;
    location    "7e-05";
    object      U;
}
// * * * * * * * * * * * * * * * * * * * * * * * * * * * * * * * * * * * * * //

dimensions      [0 1 -1 0 0 0 0];

internalField   nonuniform List<vector> 
16000
(
(20.2516 -9.9061978e-22 -0.19540618)
(20.189253 1.2779381e-21 -0.1167705)
(20.210641 7.6004201e-23 -0.034991427)
(20.16657 -1.2250536e-22 -0.15485766)
(20.15863 -6.8401166e-22 -0.033929891)
(20.12091 4.6282765e-22 -0.13068951)
(20.100674 -4.226088e-22 -0.091071551)
(20.058055 7.5750784e-23 -0.12631786)
(20.033229 -9.4053116e-22 -0.076197794)
(20.011467 9.9141122e-22 -0.051746451)
(20.003592 9.1562482e-24 -0.017284113)
(20.000451 -1.9171603e-22 -0.00539745)
(20.000044 -5.5330057e-23 -3.2645931e-05)
(19.999971 3.5617692e-26 0.00012131529)
(19.999994 -4.74543e-24 8.7243638e-05)
(19.999998 -1.4131008e-24 7.560833e-06)
(20 -6.9572064e-26 1.6775378e-07)
(20 -1.3491752e-27 -6.3703718e-07)
(20 3.5488855e-27 -7.0717931e-08)
(20 -1.1169782e-27 -1.1467196e-09)
(20 1.0013669e-28 3.094803e-09)
(20 -1.741308e-29 3.2781276e-10)
(20 8.6805622e-31 -1.5096933e-11)
(20 2.7155371e-31 -1.0710107e-11)
(20 -3.6094734e-32 1.1532665e-12)
(20 9.4325024e-33 2.2851855e-12)
(20 1.1667781e-33 -1.4579632e-12)
(20 2.5771781e-33 -3.705312e-12)
(20 -3.9345261e-35 -4.3366237e-13)
(20 9.9068575e-35 2.0196596e-12)
(20 0 -1.6690948e-12)
(20 -2.4133195e-33 9.471978e-14)
(20 7.2545702e-33 6.3301114e-13)
(20 -4.5714377e-33 -2.710376e-13)
(20 1.3209316e-32 -8.6997081e-13)
(20 -5.0448079e-34 -1.0033257e-12)
(20 3.0787819e-33 3.3597487e-12)
(20 1.6496284e-33 -5.7294775e-13)
(20 5.6803178e-34 -1.5438523e-12)
(20 5.8466903e-34 2.7605227e-12)
(20 1.1195869e-34 8.1785305e-13)
(20 -2.6213844e-33 7.7825382e-13)
(20 9.92483e-33 -6.8601211e-13)
(20 3.5974945e-34 -2.1039581e-12)
(20 -6.1283755e-35 1.9068096e-12)
(20 1.1470411e-33 1.4046366e-13)
(20 -3.8754497e-33 5.0871462e-13)
(20 1.1329828e-33 -3.820171e-12)
(20 -3.059509e-33 -2.829774e-12)
(20 2.1814985e-33 3.646985e-12)
(20 -6.2202127e-34 3.230983e-12)
(20 -9.8228368e-34 -8.6664426e-13)
(20 3.3002378e-33 -1.8539665e-12)
(20 -4.5994975e-33 -3.1792979e-12)
(20 5.7738337e-34 -3.7886683e-12)
(20 -1.0582349e-32 6.813852e-12)
(20 -1.6994824e-33 4.7030307e-12)
(20 -5.5858809e-33 -9.9123548e-13)
(20 2.6026056e-33 -1.3167685e-12)
(20 -9.311022e-33 -3.3042645e-12)
(20 2.5423785e-33 -1.8538341e-13)
(20 -5.8818136e-33 3.4538575e-12)
(20 -1.2076909e-33 3.8669477e-12)
(20 -1.1574552e-33 -3.0661547e-12)
(20 -6.5065229e-35 -1.1445811e-12)
(20 -3.224173e-33 1.8358653e-12)
(20 5.6216789e-33 -1.4329358e-12)
(20 -3.1878793e-33 1.2679334e-12)
(20 6.1561064e-33 6.7636684e-14)
(20 0 -2.0027335e-13)
(20 6.1785029e-34 1.6650663e-12)
(20 -1.5499735e-32 -3.3594904e-12)
(20 8.3705433e-34 -1.8214295e-12)
(20 -3.6367936e-33 1.4334894e-12)
(20 -2.4180307e-33 2.1979051e-12)
(20 -1.0216741e-32 -7.1692782e-13)
(20 -6.7130095e-33 -3.4188867e-12)
(20 0 -6.5013355e-13)
(20 1.481216e-33 1.2932569e-12)
(20 1.8485888e-32 4.3932923e-13)
(20.194423 9.126248e-22 -0.32866753)
(20.215776 2.4042418e-21 -0.36491172)
(20.20404 1.5494059e-21 -0.21689036)
(20.181188 3.5352064e-21 -0.36508377)
(20.156617 8.9830985e-22 -0.2326631)
(20.121197 3.1380154e-21 -0.34115963)
(20.094797 -8.0366167e-22 -0.31492531)
(20.049898 1.1839211e-22 -0.3707719)
(20.026226 -2.5370101e-21 -0.25553118)
(20.007063 -2.6304375e-21 -0.17296509)
(20.001775 -3.2091943e-21 -0.068286987)
(19.999922 6.1601149e-22 -0.023738465)
(19.999932 6.9349128e-22 -0.0039163885)
(19.999965 3.4549808e-23 -0.00040929028)
(19.999998 1.5041429e-24 0.00016484854)
(20 8.4986226e-27 4.8388029e-05)
(20 4.4591857e-25 1.1373569e-05)
(20 -2.3990229e-26 -2.2928149e-07)
(20 7.1416187e-27 -2.3379292e-07)
(20 -2.2088049e-27 -7.0025282e-08)
(20 -3.6845353e-28 -9.7655626e-10)
(20 9.2783967e-30 9.1489466e-10)
(20 0 2.3442048e-10)
(20 5.5254937e-31 3.3355532e-12)
(20 -1.071221e-31 -2.4506052e-12)
(20 8.4067091e-33 2.2052113e-12)
(20 -3.0504766e-33 6.3038041e-13)
(20 1.3581249e-33 -9.6542168e-13)
(20 1.8084602e-35 2.1534433e-13)
(20 -3.7963306e-33 -8.8253569e-13)
(20 -6.23787e-33 -4.3347592e-13)
(20 8.0075448e-34 6.5632587e-13)
(20 -1.0425666e-33 -2.2278516e-12)
(20 -2.4477785e-34 -1.8563447e-12)
(20 -4.0530434e-33 1.0461912e-13)
(20 -4.7983342e-35 4.1517546e-12)
(20 -3.6024266e-33 4.3879143e-12)
(20 1.2766206e-33 -3.7992821e-12)
(20 5.4168657e-33 5.2645871e-13)
(20 2.8583198e-34 2.7392225e-12)
(20 8.8431802e-34 -1.2214461e-13)
(20 6.8166359e-34 -2.2846644e-12)
(20 -6.8388558e-34 -4.6583448e-13)
(20 7.3354113e-33 3.1245259e-12)
(20 -1.8324251e-33 -1.93656e-12)
(20 4.6399934e-33 -5.3635742e-12)
(20 7.1728427e-34 -3.3415534e-14)
(20 1.0644523e-34 6.0612198e-14)
(20 2.5307838e-33 2.4128407e-12)
(20 -2.1351394e-33 2.113287e-13)
(20 5.1013091e-33 -2.7230842e-12)
(20 3.0735454e-33 -6.4753695e-13)
(20 8.7412351e-35 -2.0908568e-13)
(20 3.7975346e-34 6.0885444e-12)
(20 -6.9773188e-34 1.2330166e-12)
(20 4.4486178e-33 1.4334551e-12)
(20 1.7423447e-33 3.8328928e-12)
(20 0 -3.5167375e-12)
(20 -7.1198427e-33 -7.1909393e-12)
(20 7.6196631e-35 -2.4572344e-12)
(20 -5.0448348e-33 3.6462946e-12)
(20 -6.902694e-34 1.9988775e-12)
(20 -2.2895421e-33 -2.3117191e-12)
(20 -3.144196e-33 -7.220802e-13)
(20 7.0163137e-35 6.7350709e-13)
(20 1.2391637e-33 1.0710828e-12)
(20 -1.7627432e-33 2.9223043e-12)
(20 6.6015785e-33 1.6616037e-12)
(20 -3.4601786e-33 -1.6377515e-12)
(20 7.7358176e-33 -2.2729541e-12)
(20 -5.4838425e-33 3.7030784e-12)
(20 5.0925271e-34 2.2925494e-12)
(20 1.6442072e-33 -3.4690773e-12)
(20 1.1667908e-34 -2.0318568e-12)
(20 4.0151015e-34 1.3710254e-12)
(20 1.745681e-34 -2.765016e-13)
(20 -4.1782485e-33 2.2740222e-13)
(20 3.9780549e-33 -2.5375682e-14)
(20 4.3798135e-35 -2.2588667e-12)
(20 -1.142553e-33 8.0158471e-13)
(20.105052 -1.9328933e-21 -0.44956226)
(20.22511 -3.6740167e-22 -0.67176405)
(20.2029 -1.0045643e-21 -0.41499996)
(20.185548 3.2841746e-21 -0.57264825)
(20.153971 -1.9292234e-23 -0.47080259)
(20.119199 -2.7248567e-21 -0.54030079)
(20.087737 -8.7545972e-22 -0.55968358)
(20.037546 -1.2995198e-21 -0.62809549)
(20.015876 0 -0.45154288)
(19.99858 1.8630658e-23 -0.31512264)
(19.997428 -1.8837261e-23 -0.13512958)
(19.998013 1.2940234e-21 -0.050248635)
(19.999461 -3.3166412e-22 -0.010151931)
(19.99989 -1.6051928e-22 -0.0013959332)
(20.000003 4.0599081e-24 0.00020358044)
(20.000005 -2.1484846e-24 9.717283e-05)
(20.000002 1.0231345e-24 2.8147346e-05)
(20 -9.7878601e-26 1.1353222e-06)
(20 7.1714074e-28 -3.3046053e-07)
(20 -4.6099122e-27 -1.5317966e-07)
(20 6.7587237e-28 -1.1094905e-08)
(20 2.681518e-31 8.2096396e-10)
(20 7.7116151e-32 4.94438e-10)
(20 -1.8611252e-30 3.7288146e-11)
(20 -4.3009517e-32 -3.9727298e-12)
(20 -9.0044299e-34 -1.9060593e-12)
(20 -7.6230933e-34 3.1142383e-13)
(20 -7.6306256e-35 1.633127e-12)
(20 -4.0304615e-33 -1.1546828e-12)
(20 4.0970322e-33 -3.8327279e-14)
(20 3.3481279e-33 -4.0086699e-13)
(20 4.1355429e-33 2.264583e-12)
(20 -2.1710244e-35 6.3450513e-13)
(20 -8.382961e-34 -5.5359679e-13)
(20 -1.6672967e-33 2.415108e-12)
(20 -4.3978462e-34 -1.3624283e-12)
(20 -1.4572106e-33 -3.8820805e-12)
(20 -3.5989193e-33 -1.5695922e-12)
(20 1.2890068e-33 1.6778278e-12)
(20 -2.558999e-33 -2.8553632e-13)
(20 3.803917e-33 1.0674568e-12)
(20 -6.0515149e-34 2.8004631e-12)
(20 -6.6954691e-35 -3.4885706e-12)
(20 4.6144309e-35 -5.8857803e-13)
(20 8.5672847e-35 -1.0431199e-12)
(20 7.1038759e-34 -4.4277489e-12)
(20 -7.7009946e-33 6.5237027e-12)
(20 -7.5545549e-33 6.8440799e-12)
(20 -6.9177002e-33 9.1371316e-13)
(20 8.3476172e-34 -1.9991052e-12)
(20 -5.659456e-34 -4.238116e-12)
(20 1.4238727e-35 -1.155972e-12)
(20 1.5870283e-33 2.8658987e-13)
(20 6.4199381e-34 1.1808559e-12)
(20 8.0818326e-34 -4.0665317e-12)
(20 -2.2642604e-33 1.01112e-12)
(20 6.2973003e-33 9.4292156e-12)
(20 7.4576522e-35 -2.2927131e-12)
(20 3.0635563e-33 -6.6305509e-12)
(20 1.1825837e-34 -8.5002459e-13)
(20 4.6595275e-34 -6.6168479e-13)
(20 1.5002189e-33 7.6507636e-13)
(20 2.0226425e-33 3.3634708e-13)
(20 -2.4740688e-33 -7.7631601e-14)
(20 1.3352128e-33 4.3836805e-13)
(20 3.7452273e-33 2.9042413e-12)
(20 7.8314701e-34 1.8141563e-12)
(20 -1.4792324e-32 -2.7980028e-12)
(20 1.2605713e-32 5.2254577e-13)
(20 1.7369191e-34 -1.957483e-13)
(20 1.7638708e-33 -1.4177834e-12)
(20 -1.8921493e-33 1.656015e-12)
(20 7.3338355e-35 1.0140879e-12)
(20 5.7884811e-35 -8.4137531e-13)
(20 1.6052317e-33 8.8396817e-14)
(20 -9.4775683e-35 1.8769831e-13)
(20 8.7491417e-33 -7.9668411e-13)
(20 -4.7885638e-35 -5.5715939e-13)
(20 1.5816187e-33 3.9276539e-13)
(20 3.1357429e-33 -1.2834185e-13)
(19.976079 -2.2271863e-21 -0.56539461)
(20.225832 -4.3831728e-22 -0.93311666)
(20.200315 -1.2004866e-22 -0.61274183)
(20.178281 4.747272e-22 -0.82452325)
(20.147863 6.9904499e-23 -0.69386942)
(20.114219 -4.8660803e-22 -0.73061979)
(20.077721 2.0313234e-21 -0.81389212)
(20.019142 -4.5416518e-23 -0.9001292)
(19.999933 4.2173832e-22 -0.67060529)
(19.984848 5.3474717e-21 -0.48165931)
(19.990273 4.6957057e-21 -0.21643677)
(19.994928 -1.9028681e-22 -0.08381738)
(19.998693 6.6634717e-22 -0.018258311)
(19.999762 4.7264942e-27 -0.0027835076)
(20.00001 4.172197e-26 0.00024996758)
(20.000012 -3.5509424e-26 0.00015525244)
(20.000004 -1.4914423e-24 4.9406013e-05)
(20 -1.7455786e-26 2.8176625e-06)
(20 6.4883517e-28 -4.3795108e-07)
(20 5.6373702e-28 -2.5277977e-07)
(20 -1.2117979e-27 -2.3261857e-08)
(20 7.3605905e-31 7.7834697e-10)
(20 1.7931914e-29 8.0227964e-10)
(20 3.5179104e-30 7.3472946e-11)
(20 -9.8220459e-32 -3.4917711e-12)
(20 -8.5108944e-32 -1.0350114e-12)
(20 -1.8538969e-33 -1.2200899e-12)
(20 -3.7486435e-33 -1.2262048e-13)
(20 -6.3341036e-33 -4.792311e-13)
(20 -3.980186e-34 1.9873123e-12)
(20 5.752832e-33 1.5055301e-12)
(20 1.5841328e-34 4.3597311e-13)
(20 7.6200552e-33 1.4333491e-12)
(20 5.0235117e-33 2.519367e-13)
(20 -4.0239694e-33 2.8681273e-13)
(20 1.7870529e-32 -1.6910142e-12)
(20 3.6003978e-34 -3.4612605e-12)
(20 -2.723689e-34 1.9586386e-12)
(20 1.2265496e-34 -4.0558721e-14)
(20 -9.3007125e-34 -2.1235129e-12)
(20 -5.9347349e-34 -1.1447397e-12)
(20 -5.3545336e-34 1.7417576e-12)
(20 1.1507982e-33 1.7549791e-12)
(20 -3.3632835e-35 -4.2434713e-12)
(20 2.0841491e-33 -3.3551265e-12)
(20 1.0362315e-33 3.5694824e-12)
(20 -4.3346284e-34 6.7472172e-12)
(20 -1.0381098e-32 5.4319062e-12)
(20 -3.504349e-34 -1.7554768e-12)
(20 -1.3492326e-32 -8.151504e-12)
(20 1.187881e-33 -2.9819067e-12)
(20 2.7456343e-33 4.1601626e-12)
(20 -5.5784596e-34 5.7398346e-13)
(20 -1.1367828e-34 3.1831781e-13)
(20 -4.5839414e-34 -2.1726104e-12)
(20 -2.7426154e-33 -4.0338136e-13)
(20 -1.9997307e-33 6.9501582e-12)
(20 3.3862164e-34 6.5664859e-13)
(20 -6.7255553e-35 7.6968909e-13)
(20 3.0149602e-33 -1.4518103e-12)
(20 4.8044625e-33 -2.9940212e-12)
(20 1.2749137e-33 2.1462777e-13)
(20 2.8301075e-33 -4.239304e-13)
(20 2.4913202e-33 -1.8830261e-12)
(20 1.0750749e-33 7.6363058e-13)
(20 2.7148369e-33 2.8305123e-12)
(20 9.8350414e-35 -2.590086e-12)
(20 3.8594268e-33 -3.0501286e-12)
(20 3.7241903e-33 4.1929165e-12)
(20 1.4065135e-33 3.4186984e-12)
(20 -1.026078e-34 -6.6620455e-13)
(20 -5.9998378e-35 -7.6749168e-13)
(20 2.689276e-34 -5.4574097e-13)
(20 1.4334555e-33 -1.2694221e-12)
(20 4.5014814e-35 -2.4767179e-12)
(20 1.9840919e-33 1.3184501e-12)
(20 -2.1493847e-33 2.593034e-12)
(20 -5.8568799e-33 -1.0432847e-12)
(20 2.0129577e-33 -1.5180056e-12)
(20 -1.7651173e-34 3.3906085e-13)
(19.814985 -2.6924263e-21 -0.68487422)
(20.224172 -5.819731e-21 -1.1921606)
(20.191823 0 -0.8131222)
(20.16696 2.4160184e-23 -1.1002113)
(20.138364 -1.6868913e-21 -0.90569452)
(20.107343 -6.1440668e-21 -0.9056582)
(20.060993 5.246097e-21 -1.0799252)
(19.99548 -3.032135e-22 -1.1935831)
(19.978137 1.8605807e-20 -0.90562972)
(19.965718 1.111973e-23 -0.67045197)
(19.980041 -5.2835463e-21 -0.3129466)
(19.990431 -5.9386819e-21 -0.1255958)
(19.997511 -8.1163796e-23 -0.029022012)
(19.99955 4.2898287e-22 -0.0047989435)
(20.000013 -1.2466996e-23 0.00025313102)
(20.000022 -2.5753339e-24 0.00022394918)
(20.000008 -2.7508246e-24 7.7511308e-05)
(20.000001 6.6595875e-25 5.5322716e-06)
(20 1.5803453e-26 -4.9508283e-07)
(20 7.5275512e-27 -3.8300901e-07)
(20 5.5603021e-27 -4.1800946e-08)
(20 -1.010534e-28 3.6956927e-10)
(20 5.4698899e-29 1.2196891e-09)
(20 1.013323e-29 1.3212939e-10)
(20 4.0751447e-32 -3.3939797e-12)
(20 7.6222887e-32 -3.9307945e-12)
(20 -8.5003544e-33 -3.8905595e-12)
(20 4.6252455e-34 2.1705243e-12)
(20 -8.7687656e-34 2.2260671e-12)
(20 3.2623843e-33 -1.0605176e-12)
(20 -1.2956447e-33 2.7399656e-12)
(20 4.2050117e-33 6.8864487e-13)
(20 8.9200214e-33 6.4597424e-13)
(20 -7.6043428e-34 -1.4027837e-12)
(20 4.8359199e-34 -8.6655751e-13)
(20 -6.3623456e-34 -1.8081109e-12)
(20 1.6148548e-34 -2.8551087e-12)
(20 7.839317e-33 3.1777923e-12)
(20 -1.9505059e-34 -6.8201116e-13)
(20 -1.4192811e-34 1.4778995e-12)
(20 6.8309949e-35 -8.0031509e-13)
(20 8.6054533e-33 -2.5595471e-12)
(20 4.8254494e-33 7.6777445e-13)
(20 -3.305466e-33 1.2938666e-13)
(20 -7.3374497e-34 4.4911307e-12)
(20 5.6473355e-33 2.3627545e-12)
(20 3.2621853e-33 1.4048142e-12)
(20 2.3774446e-33 2.4939184e-12)
(20 4.4380641e-33 -4.4371435e-12)
(20 5.0286565e-33 -4.256748e-12)
(20 7.6969783e-34 -2.714456e-12)
(20 -3.2020734e-34 -7.6031687e-13)
(20 1.9553721e-33 2.2745278e-12)
(20 -8.7610474e-34 -2.096775e-12)
(20 4.7020507e-35 -4.6515508e-13)
(20 -2.1909542e-33 6.1807951e-13)
(20 -1.4788483e-33 3.5425613e-12)
(20 1.8691294e-33 1.1882783e-12)
(20 -4.8745888e-34 -3.14286e-13)
(20 4.6298956e-33 3.1800089e-12)
(20 4.5829994e-33 -1.773083e-12)
(20 5.1927296e-33 -3.8995368e-12)
(20 -3.6304131e-35 4.9953763e-13)
(20 1.3213153e-33 2.9570544e-13)
(20 -8.8566156e-34 6.5063505e-13)
(20 -1.2187544e-33 1.6637191e-12)
(20 -1.4874167e-33 -1.2253609e-12)
(20 -1.966322e-33 -1.2866279e-12)
(20 6.4744392e-34 9.7160224e-13)
(20 2.2959461e-33 1.2662404e-12)
(20 2.9054174e-33 -7.1777285e-13)
(20 -5.1977781e-35 4.1448627e-13)
(20 -1.0157477e-33 1.5535154e-12)
(20 -2.2553701e-33 -6.8897821e-13)
(20 3.1740176e-34 2.1147611e-13)
(20 9.5696464e-33 -1.5586607e-12)
(20 7.5674541e-33 -6.513034e-13)
(20 -1.1101742e-34 1.4272139e-12)
(20 1.0945922e-33 -1.0277279e-12)
(20 1.2537427e-34 2.2757419e-13)
(19.619332 -1.2519603e-22 -0.80424427)
(20.223711 6.1022602e-21 -1.4697054)
(20.179221 -1.6465125e-21 -1.0277333)
(20.152565 -6.6429751e-23 -1.3881501)
(20.1269 -3.1371453e-23 -1.1114682)
(20.0977 5.681552e-23 -1.0801324)
(20.038047 2.9674311e-23 -1.3518349)
(19.964863 -3.2681504e-22 -1.4968137)
(19.949031 -7.7023698e-21 -1.1639329)
(19.940059 1.8886999e-20 -0.88201647)
(19.965926 1.3958252e-20 -0.4252468)
(19.984008 -3.3788019e-21 -0.17631144)
(19.995735 -2.7041425e-21 -0.04289011)
(19.999206 8.9075924e-22 -0.0075976658)
(20.00001 3.1417107e-23 0.00018374931)
(20.000034 1.4879683e-23 0.00030202361)
(20.000013 5.289007e-25 0.00011324213)
(20.000001 -1.4916647e-24 9.6730318e-06)
(20 -3.1871815e-27 -4.5073488e-07)
(20 -1.1885867e-26 -5.4550281e-07)
(20 4.3126017e-30 -6.8475113e-08)
(20 -8.0164867e-31 -7.0986689e-10)
(20 2.2014066e-31 1.7417138e-09)
(20 2.5866006e-32 2.1655095e-10)
(20 -4.4599031e-31 -2.5572586e-12)
(20 8.3256422e-32 -3.8481172e-12)
(20 5.6380699e-35 -3.9441842e-13)
(20 5.3680912e-33 -4.0851332e-13)
(20 -1.3622942e-33 1.2552278e-12)
(20 2.4586585e-33 -4.8813297e-13)
(20 1.1755797e-35 7.2890778e-13)
(20 -2.9291554e-35 -1.8987422e-13)
(20 -2.6406352e-33 1.8574288e-12)
(20 1.1121338e-34 -5.486353e-13)
(20 1.1031558e-34 -2.3152988e-14)
(20 -2.4071363e-33 1.5597977e-12)
(20 -6.9554436e-34 -4.2424786e-12)
(20 -6.9216761e-33 -1.2260284e-12)
(20 4.7904241e-33 1.9756947e-12)
(20 -1.1003629e-32 5.5386352e-13)
(20 -2.7152363e-33 1.395488e-12)
(20 -8.9834379e-34 3.360675e-12)
(20 -2.6669306e-33 2.1517014e-13)
(20 3.8419152e-33 -1.8403433e-12)
(20 -1.7010174e-33 2.456036e-12)
(20 6.7205819e-34 -1.1969348e-12)
(20 2.7298961e-33 -1.794667e-13)
(20 4.8708351e-33 1.5404718e-12)
(20 2.4586723e-35 -4.7290724e-12)
(20 3.0171766e-33 -2.5292452e-12)
(20 2.7400132e-35 3.0496098e-13)
(20 1.2961153e-32 3.4879356e-12)
(20 -1.2766894e-33 8.5627566e-13)
(20 8.1417018e-33 -5.3681867e-12)
(20 -2.9832403e-33 1.5468165e-12)
(20 1.4842247e-34 5.0057444e-12)
(20 2.81807e-33 3.8025019e-14)
(20 8.7648663e-35 -3.9902795e-12)
(20 -6.2800134e-34 8.2576928e-13)
(20 8.9619295e-33 6.084788e-12)
(20 5.0474237e-33 1.186122e-12)
(20 -3.7326046e-33 -3.5655309e-12)
(20 9.8312149e-33 -3.1264337e-12)
(20 -5.691823e-34 -7.9483546e-13)
(20 1.8721516e-34 1.3303471e-12)
(20 1.6491088e-33 2.0216376e-13)
(20 -1.1440205e-33 -1.6298003e-12)
(20 -2.7739659e-33 1.3448866e-12)
(20 4.6271213e-35 9.7279733e-13)
(20 1.0676228e-33 -4.8769226e-15)
(20 8.3001192e-34 -1.4397371e-12)
(20 1.0478586e-33 1.3518843e-12)
(20 -2.6519587e-34 1.9285903e-12)
(20 1.2198654e-33 -2.3520528e-12)
(20 5.5336551e-35 2.4824896e-13)
(20 -4.642613e-33 7.8701807e-14)
(20 -1.582099e-33 6.2417642e-13)
(20 1.0300474e-34 1.3339623e-12)
(20 -2.0671582e-33 -2.0838613e-12)
(20 5.3181428e-34 -1.8298702e-13)
(19.400692 4.2498374e-21 -0.91043963)
(20.222736 7.5403835e-21 -1.7571725)
(20.161977 3.6494345e-21 -1.261432)
(20.134031 7.8033313e-21 -1.6884003)
(20.111406 -2.5878247e-22 -1.32761)
(20.083123 4.9852627e-21 -1.2656277)
(20.009351 -6.5997587e-23 -1.6262118)
(19.926668 -5.4958014e-23 -1.8046166)
(19.911494 7.1771957e-21 -1.4439854)
(19.906604 2.1874112e-20 -1.1162324)
(19.947041 7.9801758e-22 -0.55386729)
(19.97515 -4.3574282e-22 -0.23650371)
(19.993179 -1.4631863e-21 -0.060186347)
(19.998681 -7.6654641e-23 -0.011305349)
(19.999993 7.2854891e-24 1.5335825e-05)
(20.000049 4.2756485e-24 0.00038745959)
(20.00002 -3.0721307e-25 0.00015694696)
(20.000002 -6.1652078e-25 1.5587784e-05)
(20 -9.8067278e-27 -2.5583624e-07)
(20 -2.9713326e-26 -7.4097172e-07)
(20 3.4697134e-27 -1.0452666e-07)
(20 3.5215538e-28 -2.7484273e-09)
(20 2.2325138e-31 2.3661259e-09)
(20 -1.033867e-29 3.2963459e-10)
(20 1.4557958e-30 2.9803149e-12)
(20 -3.2769807e-31 -7.6389138e-12)
(20 2.4337305e-32 -3.1241662e-12)
(20 -6.4175533e-33 -2.5926863e-12)
(20 3.3632342e-34 3.1952697e-12)
(20 -5.7651847e-34 2.8993822e-12)
(20 -1.8590193e-33 -1.4624185e-12)
(20 2.3199056e-33 7.2008589e-13)
(20 2.7773419e-34 3.182297e-13)
(20 2.5325298e-34 -1.719197e-12)
(20 2.0638531e-34 -4.4313573e-13)
(20 -2.0427013e-33 2.652306e-12)
(20 -8.958257e-34 -1.1352147e-12)
(20 -4.5926303e-33 8.0322391e-13)
(20 -1.3735403e-34 4.9100937e-12)
(20 8.7308499e-34 -8.1808454e-13)
(20 2.0398656e-33 7.1231341e-13)
(20 0 2.9101817e-12)
(20 2.9026573e-33 -2.591334e-12)
(20 -1.7153888e-33 -9.6574931e-13)
(20 -1.0275561e-34 4.3628547e-12)
(20 3.0457885e-33 -3.7174897e-12)
(20 7.4791876e-33 -3.1655889e-12)
(20 -2.3111222e-34 1.075429e-13)
(20 7.1215415e-33 -2.2901918e-12)
(20 2.9782105e-33 2.8058847e-12)
(20 2.8811991e-33 -6.9702835e-13)
(20 -2.4560078e-33 1.7358284e-12)
(20 6.058033e-33 4.7794448e-12)
(20 2.8241396e-34 -1.2490136e-12)
(20 2.5016607e-33 -4.4157225e-12)
(20 2.4465228e-33 -5.936991e-12)
(20 -1.0948393e-33 8.4825068e-14)
(20 -2.8047644e-34 4.4276514e-12)
(20 3.1425475e-33 -2.336945e-13)
(20 -1.4023203e-33 -9.8868787e-13)
(20 -1.1045159e-32 5.7652438e-12)
(20 2.3788211e-33 4.7205852e-12)
(20 -5.1778929e-33 -2.5289847e-12)
(20 -6.4216821e-33 -3.2798076e-12)
(20 1.098605e-33 -3.5387456e-13)
(20 -2.6250695e-33 1.1953766e-12)
(20 -3.686062e-34 -1.9528141e-12)
(20 2.2726105e-33 -5.308147e-13)
(20 -1.371593e-33 1.0480354e-12)
(20 1.4676262e-33 7.6650976e-13)
(20 2.3622372e-34 -1.4364909e-13)
(20 -6.0802509e-33 3.8515439e-14)
(20 1.3765651e-33 -5.8974165e-13)
(20 -7.0760288e-34 -8.6198377e-13)
(20 4.2038901e-33 7.6970528e-13)
(20 5.0813196e-34 -5.0794148e-13)
(20 -5.8665916e-33 3.2056305e-13)
(20 2.6800371e-34 9.5529648e-14)
(20 -2.6655056e-34 1.1673857e-12)
(20 2.576272e-34 -6.6040608e-13)
(19.169452 1.1052789e-20 -0.99987173)
(20.219444 1.3709255e-21 -2.0550294)
(20.138382 2.6776113e-21 -1.5151851)
(20.10988 -1.2676461e-20 -2.0015364)
(20.090149 -9.5037734e-22 -1.5621209)
(20.064413 -1.0742111e-20 -1.4630414)
(19.976542 -1.1059035e-20 -1.8965704)
(19.879145 5.010067e-21 -2.1159414)
(19.864114 -8.8865986e-21 -1.7486343)
(19.864084 -1.1687872e-20 -1.3725628)
(19.922483 8.5922698e-21 -0.69893633)
(19.963317 6.7378781e-21 -0.3065373)
(19.989637 -1.8709181e-22 -0.081177508)
(19.997914 -4.8530502e-22 -0.016036169)
(19.999954 -6.8893716e-23 -0.00027966739)
(20.000068 -6.7761049e-24 0.00047752582)
(20.00003 -4.3271142e-25 0.00020879624)
(20.000004 1.0262028e-24 2.3626449e-05)
(20 -1.674476e-25 1.4167384e-07)
(20 1.9078919e-26 -9.6894664e-07)
(20 -1.416367e-26 -1.5110849e-07)
(20 -9.0883571e-29 -6.0597747e-09)
(20 -5.3792168e-29 3.0796116e-09)
(20 1.4989382e-29 4.759315e-10)
(20 5.1421598e-33 1.1594809e-11)
(20 1.2159079e-31 -6.5379626e-12)
(20 3.9545598e-32 1.1980601e-12)
(20 3.8168948e-33 1.033655e-12)
(20 1.2143075e-32 -1.6137999e-13)
(20 -2.4354686e-33 1.3610514e-12)
(20 -2.8369611e-33 -9.7295225e-13)
(20 1.412969e-33 -2.1945606e-12)
(20 1.5262612e-33 6.1791838e-13)
(20 5.8480248e-33 2.146415e-12)
(20 4.587961e-34 -1.0903533e-12)
(20 1.4127109e-33 -7.5073446e-13)
(20 -4.2330916e-33 -1.0672908e-12)
(20 5.7510661e-34 -6.0426571e-13)
(20 2.0620321e-33 6.3943373e-13)
(20 2.6727633e-33 -1.5417206e-12)
(20 2.956753e-33 1.9792251e-13)
(20 4.5206973e-33 1.9694792e-12)
(20 4.7610439e-34 -2.3118874e-13)
(20 2.5941748e-33 2.817787e-12)
(20 6.2283915e-34 4.9108924e-12)
(20 3.2770594e-33 -3.7834351e-12)
(20 -1.6464711e-34 -3.4392005e-12)
(20 5.6640133e-33 5.5271724e-12)
(20 6.0949597e-33 6.7083159e-14)
(20 4.5191107e-33 -5.8180144e-12)
(20 4.9998555e-33 -4.991498e-12)
(20 1.7453921e-33 -9.123514e-13)
(20 -4.6382563e-33 4.2819501e-12)
(20 3.8203245e-33 2.2593223e-12)
(20 -6.4422893e-34 -1.2184812e-12)
(20 2.1003264e-33 -3.7491111e-12)
(20 -7.9727992e-33 -1.6009059e-12)
(20 -8.2401118e-34 2.458277e-12)
(20 -2.1874303e-34 7.4615887e-13)
(20 3.6320217e-33 -2.6642498e-12)
(20 9.0293027e-35 4.3093144e-13)
(20 -1.0376777e-32 2.1665682e-12)
(20 2.6322878e-33 -2.6488556e-12)
(20 7.0824884e-33 2.894831e-12)
(20 6.935356e-35 1.9803232e-12)
(20 1.3819621e-33 -1.1302737e-12)
(20 9.0484555e-34 1.2031328e-12)
(20 -3.4728098e-34 2.2375922e-12)
(20 6.3627499e-33 -2.1652513e-12)
(20 -1.2165048e-33 1.5691822e-12)
(20 -2.0473272e-34 3.2389981e-12)
(20 5.9768822e-34 -1.4186641e-12)
(20 -5.1772708e-34 -1.2612903e-12)
(20 4.4452109e-33 -1.1725221e-12)
(20 -4.7882724e-34 1.4135193e-14)
(20 -4.584025e-35 3.1396366e-13)
(20 4.6328121e-33 -6.3231566e-13)
(20 -1.6113792e-33 -2.9774333e-13)
(20 6.3235962e-36 7.6913195e-13)
(20 -4.4007903e-33 -7.7745958e-14)
(18.934486 -6.3836434e-21 -1.0726753)
(20.214364 -8.014851e-21 -2.3665503)
(20.107502 -2.5433589e-21 -1.7873763)
(20.080257 -5.1095071e-22 -2.3260175)
(20.062785 1.7347872e-22 -1.8160308)
(20.042043 -5.0640772e-21 -1.6730368)
(19.937864 -1.9704181e-20 -2.1698348)
(19.821893 4.0092544e-21 -2.43489)
(19.805691 -1.7951097e-20 -2.0754762)
(19.811284 -1.1292728e-21 -1.6497548)
(19.891247 1.0265946e-21 -0.86071245)
(19.94788 -6.4689223e-22 -0.38682956)
(19.984862 2.321555e-22 -0.10614586)
(19.996833 -7.4170026e-22 -0.021905989)
(19.999884 -8.1208941e-23 -0.00072993321)
(20.00009 2.4848764e-24 0.00056909499)
(20.000043 -1.0288474e-23 0.00026899184)
(20.000006 -1.4674349e-24 3.411576e-05)
(20 1.1109042e-26 7.9608772e-07)
(20 2.0555525e-26 -1.2280542e-06)
(20 -5.7652131e-27 -2.0929281e-07)
(20 -7.7232347e-28 -1.0979344e-08)
(20 -4.9926948e-29 3.8719427e-09)
(20 -1.9170622e-29 6.6111941e-10)
(20 1.756752e-30 2.3333566e-11)
(20 1.1652354e-31 -9.4857962e-12)
(20 8.0512479e-33 -8.3856363e-13)
(20 3.5957993e-33 7.4320428e-13)
(20 4.6146498e-34 8.1797693e-13)
(20 0 -2.223334e-13)
(20 -2.2703038e-33 -5.3178883e-13)
(20 -7.9152859e-35 1.4268073e-12)
(20 1.7171497e-34 9.7817899e-13)
(20 -2.4777848e-34 -4.6552843e-13)
(20 2.8225961e-33 -1.3548362e-13)
(20 -1.2307817e-33 -5.4927915e-13)
(20 -1.6198587e-33 1.428968e-12)
(20 -2.9514099e-34 -1.9379173e-12)
(20 1.1271541e-33 -9.7320058e-13)
(20 2.8515848e-33 -6.6253739e-13)
(20 -1.3176975e-33 -4.6206098e-12)
(20 1.5093802e-33 7.4984676e-13)
(20 1.3080514e-34 3.1970209e-12)
(20 -1.2091085e-33 2.1593617e-12)
(20 -1.9173764e-33 1.6188643e-12)
(20 4.6484711e-33 2.0204973e-12)
(20 -5.5342418e-33 -2.6041637e-12)
(20 1.3121109e-33 2.1899974e-12)
(20 -6.0561164e-33 4.3619824e-12)
(20 -5.8148523e-33 -6.1871132e-12)
(20 6.6480251e-34 -3.333287e-12)
(20 -8.0479579e-34 1.9905509e-12)
(20 6.2249406e-33 -2.4795302e-12)
(20 -1.0743537e-33 -1.1781237e-13)
(20 4.5212401e-33 3.6647671e-12)
(20 -1.8044727e-32 2.33961e-12)
(20 2.3473816e-33 -1.2278939e-12)
(20 -1.351623e-32 -4.3179177e-12)
(20 -8.0332413e-33 -3.4641696e-12)
(20 4.2416233e-33 -3.3096076e-12)
(20 -2.0672809e-34 -1.0244385e-12)
(20 7.653028e-34 3.0526019e-12)
(20 4.6488945e-33 -1.2485521e-13)
(20 -1.9274049e-33 -1.6561787e-12)
(20 4.5255359e-33 -8.1401719e-13)
(20 -6.4953948e-33 -1.1468147e-13)
(20 2.7181526e-34 -4.1707142e-13)
(20 2.0694673e-33 1.0094775e-12)
(20 -2.6169085e-34 -2.201647e-13)
(20 -6.2935791e-34 1.2023733e-12)
(20 -4.7267854e-33 3.6714898e-12)
(20 -4.5923585e-33 -5.8326231e-13)
(20 1.1004275e-33 1.0941798e-12)
(20 6.0373402e-33 -9.6117692e-14)
(20 2.0228812e-33 2.806676e-13)
(20 -1.1363722e-33 1.3054827e-12)
(20 1.0648721e-33 -2.6522379e-12)
(20 0 -1.3569987e-12)
(20 8.5348757e-33 9.9838762e-13)
(20 0 1.5058965e-13)
(18.704078 7.1945339e-21 -1.1281513)
(20.208404 6.5070128e-22 -2.6984399)
(20.066441 3.0476334e-21 -2.0790888)
(20.045635 -4.340391e-21 -2.6608782)
(20.027661 -3.0981194e-21 -2.092017)
(20.015111 -1.7622071e-21 -1.895661)
(19.891745 -6.0525784e-22 -2.4524644)
(19.754421 6.0110941e-21 -2.763044)
(19.734841 -3.025685e-23 -2.4227775)
(19.746439 5.9487835e-23 -1.9492016)
(19.852094 3.6640683e-20 -1.0398439)
(19.928078 9.9296423e-21 -0.47788401)
(19.978554 -6.481316e-21 -0.13540143)
(19.995347 -8.4150999e-22 -0.029037571)
(19.999769 -1.0086193e-23 -0.0013657274)
(20.000116 -1.4192505e-24 0.00065870874)
(20.000059 -5.3476985e-25 0.00033782369)
(20.000008 1.7203922e-24 4.735864e-05)
(20 1.6928731e-25 1.7643867e-06)
(20 -2.2302396e-26 -1.5161155e-06)
(20 2.153592e-26 -2.8010005e-07)
(20 2.6603177e-28 -1.78448e-08)
(20 1.1481193e-28 4.7247331e-09)
(20 1.9809394e-29 8.8866261e-10)
(20 -1.9819583e-30 4.2743334e-11)
(20 4.4643576e-31 -1.155908e-11)
(20 -8.3363022e-32 -2.3777166e-12)
(20 -9.7513816e-34 -1.7040836e-12)
(20 -5.6206757e-34 9.1645355e-13)
(20 2.9892768e-33 1.0672272e-12)
(20 -2.4777997e-34 -1.0520495e-12)
(20 2.0964467e-34 5.0848117e-14)
(20 -1.2880245e-33 4.6781116e-13)
(20 -3.9309299e-33 -1.1645802e-12)
(20 -1.3680254e-34 2.2427915e-13)
(20 -8.3118094e-33 1.3528844e-12)
(20 -1.3160668e-33 1.2269166e-13)
(20 2.5474769e-33 2.47438e-14)
(20 3.4759187e-33 -2.5484921e-12)
(20 5.7666321e-33 -3.2011705e-12)
(20 2.9787921e-34 -1.2266256e-12)
(20 -1.8199302e-33 -1.5568829e-12)
(20 3.8954111e-34 -3.3404517e-13)
(20 3.0777739e-33 3.0814185e-12)
(20 -7.5465263e-35 2.319671e-12)
(20 -5.5868441e-35 2.0805183e-12)
(20 -4.9265285e-33 -1.4384659e-12)
(20 -1.6969943e-33 1.8575058e-12)
(20 -8.6270557e-34 3.3169559e-12)
(20 0 -3.3674435e-12)
(20 1.9471963e-33 -1.2584735e-12)
(20 5.9848222e-34 1.2281542e-12)
(20 -2.0421645e-33 4.6620676e-13)
(20 2.8926539e-33 -2.19864e-12)
(20 2.4720141e-33 2.9869067e-12)
(20 8.4448431e-33 8.0847768e-12)
(20 -4.1395863e-33 1.7102002e-12)
(20 3.2765494e-33 -6.0373193e-12)
(20 -5.1550987e-34 -7.1684779e-12)
(20 1.7352003e-33 -3.6202988e-12)
(20 1.5130009e-33 9.9116997e-13)
(20 8.0225348e-35 3.3702004e-12)
(20 -6.6508419e-33 -1.5589899e-12)
(20 -1.5252757e-34 -4.9494473e-12)
(20 -1.1793717e-32 4.8054812e-12)
(20 -1.6660694e-33 5.2273112e-12)
(20 -2.3136415e-33 -3.0281859e-12)
(20 3.6858621e-33 -2.7982981e-12)
(20 -3.0556414e-33 -2.453584e-12)
(20 1.5427899e-34 -2.2982441e-12)
(20 3.8261894e-33 1.6615014e-12)
(20 2.9287007e-33 3.6373352e-12)
(20 -7.3512115e-34 2.1343115e-13)
(20 4.9172834e-33 -8.6890335e-13)
(20 2.636202e-33 5.8062588e-13)
(20 9.4406345e-34 -1.2511828e-13)
(20 2.4161662e-33 5.5888438e-13)
(20 -7.9378301e-33 -1.8109927e-12)
(20 -5.9394561e-33 3.4921452e-13)
(20 1.5245252e-33 2.7937112e-13)
(18.495203 8.536604e-21 -1.1618072)
(20.203442 5.7318343e-22 -3.0580582)
(20.013326 3.268714e-22 -2.3924738)
(20.007879 -1.760643e-22 -2.9989228)
(19.983204 3.7632879e-22 -2.3966015)
(19.983084 -5.0370391e-23 -2.1313379)
(19.836836 6.9356109e-21 -2.749182)
(19.676165 9.8309575e-22 -3.1012348)
(19.64969 1.5676644e-21 -2.7898665)
(19.667436 -6.2445715e-20 -2.2725709)
(19.803529 -2.7692891e-21 -1.2372626)
(19.902975 2.8067381e-20 -0.58038315)
(19.970338 7.2661754e-21 -0.16930941)
(19.993344 9.371418e-23 -0.03756682)
(19.999591 -2.9562762e-22 -0.0022197758)
(20.000144 -1.4505098e-25 0.0007426684)
(20.00008 -7.3980732e-24 0.0004156422)
(20.000013 -1.9470566e-24 6.3653937e-05)
(20 -2.06825e-26 3.1079485e-06)
(20 -2.3783856e-26 -1.8302796e-06)
(20 -2.340438e-29 -3.6456555e-07)
(20 1.2893142e-27 -2.6980252e-08)
(20 -4.6169939e-30 5.613598e-09)
(20 2.4906572e-30 1.1568123e-09)
(20 2.9509213e-30 6.5992584e-11)
(20 -1.631228e-31 -1.2861531e-11)
(20 4.6203508e-33 -3.9914128e-13)
(20 5.2956871e-33 -1.337878e-12)
(20 1.0330235e-33 -1.8117384e-12)
(20 -1.0048982e-33 1.1068473e-12)
(20 -3.4352401e-33 6.9793284e-13)
(20 1.242162e-34 -1.4220419e-12)
(20 -7.8857528e-35 1.0007313e-12)
(20 -2.4066557e-34 1.2483703e-12)
(20 -4.6035611e-33 -2.193836e-12)
(20 -5.2025963e-33 -8.8444095e-13)
(20 3.5253661e-33 1.9725176e-12)
(20 -2.707272e-33 -6.4930546e-13)
(20 8.6464852e-33 -2.4854465e-12)
(20 1.5706771e-33 -5.4581118e-13)