/*--------------------------------*- C++ -*----------------------------------*\
| =========                 |                                                 |
| \\      /  F ield         | OpenFOAM: The Open Source CFD Toolbox           |
|  \\    /   O peration     | Version:  2406                                  |
|   \\  /    A nd           | Website:  www.openfoam.com                      |
|    \\/     M anipulation  |                                                 |
\*---------------------------------------------------------------------------*/
FoamFile
{
    version     2.0;
    format      ascii;
    arch        "LSB;label=32;scalar=64";
    class       volScalarField;
    location    "8e-05";
    object      alphat;
}
// * * * * * * * * * * * * * * * * * * * * * * * * * * * * * * * * * * * * * //

dimensions      [1 -1 -1 0 0 0 0];

internalField   nonuniform List<scalar> 
16000
(
1.1697653e-05
7.2277609e-05
0.00013177923
0.00017446101
0.00014941478
0.0001689084
0.0001989562
0.00015079554
0.0001660622
0.00018026935
0.00021269621
0.00039440652
0.00084638105
0.001166314
0.0011663142
0.0011663144
0.0011663147
0.0011663147
0.0011663147
0.0011663147
0.0011663147
0.0011663147
0.0011663147
0.0011663147
0.0011663147
0.0011663147
0.0011663147
0.0011663147
0.0011663147
0.0011663147
0.0011663147
0.0011663147
0.0011663147
0.0011663147
0.0011663147
0.0011663147
0.0011663147
0.0011663147
0.0011663147
0.0011663147
0.0011663147
0.0011663147
0.0011663147
0.0011663147
0.0011663147
0.0011663147
0.0011663147
0.0011663147
0.0011663147
0.0011663147
0.0011663147
0.0011663147
0.0011663147
0.0011663147
0.0011663147
0.0011663147
0.0011663147
0.0011663147
0.0011663147
0.0011663147
0.0011663147
0.0011663147
0.0011663147
0.0011663147
0.0011663147
0.0011663147
0.0011663147
0.0011663147
0.0011663147
0.0011663147
0.0011663147
0.0011663147
0.0011663147
0.0011663147
0.0011663147
0.0011663147
0.0011663147
0.0011663147
0.0011663147
0.0011663147
1.1356255e-05
0.00014704683
0.00011609806
0.00015473875
0.00011040468
0.00018523973
0.00014520606
0.00013085602
0.00013385474
9.6111786e-05
8.1613994e-05
0.00012794169
0.00024727847
0.00090068984
0.0011663148
0.0011663142
0.0011663145
0.0011663146
0.0011663147
0.0011663147
0.0011663147
0.0011663147
0.0011663147
0.0011663147
0.0011663147
0.0011663147
0.0011663147
0.0011663147
0.0011663147
0.0011663147
0.0011663147
0.0011663147
0.0011663147
0.0011663147
0.0011663147
0.0011663147
0.0011663147
0.0011663147
0.0011663147
0.0011663147
0.0011663147
0.0011663147
0.0011663147
0.0011663147
0.0011663147
0.0011663147
0.0011663147
0.0011663147
0.0011663147
0.0011663147
0.0011663147
0.0011663147
0.0011663147
0.0011663147
0.0011663147
0.0011663147
0.0011663147
0.0011663147
0.0011663147
0.0011663147
0.0011663147
0.0011663147
0.0011663147
0.0011663147
0.0011663147
0.0011663147
0.0011663147
0.0011663147
0.0011663147
0.0011663147
0.0011663147
0.0011663147
0.0011663147
0.0011663147
0.0011663147
0.0011663147
0.0011663147
0.0011663147
0.0011663147
0.0011663147
1.1050561e-05
0.00025931071
0.00012672787
0.00012354396
6.834381e-05
0.00019033318
9.5371906e-05
0.00011967941
0.00011668017
6.1822695e-05
4.8828778e-05
7.1114751e-05
0.00012810054
0.00039520854
0.0011663163
0.0011663139
0.0011663144
0.0011663146
0.0011663147
0.0011663147
0.0011663147
0.0011663147
0.0011663147
0.0011663147
0.0011663147
0.0011663147
0.0011663147
0.0011663147
0.0011663147
0.0011663147
0.0011663147
0.0011663147
0.0011663147
0.0011663147
0.0011663147
0.0011663147
0.0011663147
0.0011663147
0.0011663147
0.0011663147
0.0011663147
0.0011663147
0.0011663147
0.0011663147
0.0011663147
0.0011663147
0.0011663147
0.0011663147
0.0011663147
0.0011663147
0.0011663147
0.0011663147
0.0011663147
0.0011663147
0.0011663147
0.0011663147
0.0011663147
0.0011663147
0.0011663147
0.0011663147
0.0011663147
0.0011663147
0.0011663147
0.0011663147
0.0011663147
0.0011663147
0.0011663147
0.0011663147
0.0011663147
0.0011663147
0.0011663147
0.0011663147
0.0011663147
0.0011663147
0.0011663147
0.0011663147
0.0011663147
0.0011663147
0.0011663147
0.0011663147
8.0040484e-06
7.3376854e-05
0.00011967096
0.00011304499
4.7399673e-05
0.00017130928
7.1888966e-05
0.00010256841
0.00011397887
4.6008244e-05
3.4143555e-05
4.6678973e-05
8.000338e-05
0.00022410252
0.0011663189
0.0011663136
0.0011663142
0.0011663146
0.0011663147
0.0011663147
0.0011663147
0.0011663147
0.0011663147
0.0011663147
0.0011663147
0.0011663147
0.0011663147
0.0011663147
0.0011663147
0.0011663147
0.0011663147
0.0011663147
0.0011663147
0.0011663147
0.0011663147
0.0011663147
0.0011663147
0.0011663147
0.0011663147
0.0011663147
0.0011663147
0.0011663147
0.0011663147
0.0011663147
0.0011663147
0.0011663147
0.0011663147
0.0011663147
0.0011663147
0.0011663147
0.0011663147
0.0011663147
0.0011663147
0.0011663147
0.0011663147
0.0011663147
0.0011663147
0.0011663147
0.0011663147
0.0011663147
0.0011663147
0.0011663147
0.0011663147
0.0011663147
0.0011663147
0.0011663147
0.0011663147
0.0011663147
0.0011663147
0.0011663147
0.0011663147
0.0011663147
0.0011663147
0.0011663147
0.0011663147
0.0011663147
0.0011663147
0.0011663147
0.0011663147
0.0011663147
5.8121688e-06
4.5268542e-05
0.00011936598
0.00010252099
3.7756126e-05
0.00014347303
5.9252529e-05
8.8950667e-05
0.00011146311
3.7403158e-05
2.6063228e-05
3.3735193e-05
5.5178099e-05
0.00014729731
0.00091386635
0.0011663133
0.0011663139
0.0011663145
0.0011663147
0.0011663147
0.0011663147
0.0011663147
0.0011663147
0.0011663147
0.0011663147
0.0011663147
0.0011663147
0.0011663147
0.0011663147
0.0011663147
0.0011663147
0.0011663147
0.0011663147
0.0011663147
0.0011663147
0.0011663147
0.0011663147
0.0011663147
0.0011663147
0.0011663147
0.0011663147
0.0011663147
0.0011663147
0.0011663147
0.0011663147
0.0011663147
0.0011663147
0.0011663147
0.0011663147
0.0011663147
0.0011663147
0.0011663147
0.0011663147
0.0011663147
0.0011663147
0.0011663147
0.0011663147
0.0011663147
0.0011663147
0.0011663147
0.0011663147
0.0011663147
0.0011663147
0.0011663147
0.0011663147
0.0011663147
0.0011663147
0.0011663147
0.0011663147
0.0011663147
0.0011663147
0.0011663147
0.0011663147
0.0011663147
0.0011663147
0.0011663147
0.0011663147
0.0011663147
0.0011663147
0.0011663147
4.453279e-06
3.0450574e-05
0.00012287494
8.9255377e-05
3.4830448e-05
0.00013678434
5.8380462e-05
6.8446417e-05
0.00010310427
3.1625047e-05
2.0848836e-05
2.5784274e-05
4.0484795e-05
0.00010356957
0.00057302283
0.0011663131
0.0011663137
0.0011663144
0.0011663146
0.0011663147
0.0011663147
0.0011663147
0.0011663147
0.0011663147
0.0011663147
0.0011663147
0.0011663147
0.0011663147
0.0011663147
0.0011663147
0.0011663147
0.0011663147
0.0011663147
0.0011663147
0.0011663147
0.0011663147
0.0011663147
0.0011663147
0.0011663147
0.0011663147
0.0011663147
0.0011663147
0.0011663147
0.0011663147
0.0011663147
0.0011663147
0.0011663147
0.0011663147
0.0011663147
0.0011663147
0.0011663147
0.0011663147
0.0011663147
0.0011663147
0.0011663147
0.0011663147
0.0011663147
0.0011663147
0.0011663147
0.0011663147
0.0011663147
0.0011663147
0.0011663147
0.0011663147
0.0011663147
0.0011663147
0.0011663147
0.0011663147
0.0011663147
0.0011663147
0.0011663147
0.0011663147
0.0011663147
0.0011663147
0.0011663147
0.0011663147
0.0011663147
0.0011663147
0.0011663147
0.0011663148
3.5510745e-06
2.1596387e-05
8.2038656e-05
8.0697739e-05
3.4240441e-05
0.00012036294
6.3329368e-05
5.058507e-05
7.8788822e-05
2.7435387e-05
1.7290686e-05
2.0534994e-05
3.1015286e-05
7.6320418e-05
0.00038251563
0.0011663131
0.0011663134
0.0011663143
0.0011663146
0.0011663147
0.0011663147
0.0011663147
0.0011663147
0.0011663147
0.0011663147
0.0011663147
0.0011663147
0.0011663147
0.0011663147
0.0011663147
0.0011663147
0.0011663147
0.0011663147
0.0011663147
0.0011663147
0.0011663147
0.0011663147
0.0011663147
0.0011663147
0.0011663147
0.0011663147
0.0011663147
0.0011663147
0.0011663147
0.0011663147
0.0011663147
0.0011663147
0.0011663147
0.0011663147
0.0011663147
0.0011663147
0.0011663147
0.0011663147
0.0011663147
0.0011663147
0.0011663147
0.0011663147
0.0011663147
0.0011663147
0.0011663147
0.0011663147
0.0011663147
0.0011663147
0.0011663147
0.0011663147
0.0011663147
0.0011663147
0.0011663147
0.0011663147
0.0011663147
0.0011663147
0.0011663147
0.0011663147
0.0011663147
0.0011663147
0.0011663147
0.0011663147
0.0011663147
0.0011663147
0.0011663148
2.9223439e-06
1.5961456e-05
5.2346579e-05
6.4446211e-05
3.5216093e-05
8.5226252e-05
7.3661554e-05
3.7406955e-05
5.5694784e-05
2.4150029e-05
1.4781968e-05
1.6823805e-05
2.4539642e-05
5.8274759e-05
0.00026789074
0.0011663135
0.001166313
0.0011663141
0.0011663146
0.0011663147
0.0011663147
0.0011663147
0.0011663147
0.0011663147
0.0011663147
0.0011663147
0.0011663147
0.0011663147
0.0011663147
0.0011663147
0.0011663147
0.0011663147
0.0011663147
0.0011663147
0.0011663147
0.0011663147
0.0011663147
0.0011663147
0.0011663147
0.0011663147
0.0011663147
0.0011663147
0.0011663147
0.0011663147
0.0011663147
0.0011663147
0.0011663147
0.0011663147
0.0011663147
0.0011663147
0.0011663147
0.0011663147
0.0011663147
0.0011663147
0.0011663147
0.0011663147
0.0011663147
0.0011663147
0.0011663147
0.0011663147
0.0011663147
0.0011663147
0.0011663147
0.0011663147
0.0011663147
0.0011663147
0.0011663147
0.0011663147
0.0011663147
0.0011663147
0.0011663147
0.0011663147
0.0011663147
0.0011663147
0.0011663147
0.0011663147
0.0011663147
0.0011663147
0.0011663147
0.0011663148
2.4747302e-06
1.2145363e-05
3.2781646e-05
5.2312395e-05
3.7579887e-05
5.8440201e-05
8.2966821e-05
3.0145243e-05
3.9851723e-05
2.19721e-05
1.2862818e-05
1.4083787e-05
1.9905802e-05
4.5749271e-05
0.00019480576
0.0011663143
0.0011663127
0.0011663139
0.0011663146
0.0011663147
0.0011663147
0.0011663147
0.0011663147
0.0011663147
0.0011663147
0.0011663147
0.0011663147
0.0011663147
0.0011663147
0.0011663147
0.0011663147
0.0011663147
0.0011663147
0.0011663147
0.0011663147
0.0011663147
0.0011663147
0.0011663147
0.0011663147
0.0011663147
0.0011663147
0.0011663147
0.0011663147
0.0011663147
0.0011663147
0.0011663147
0.0011663147
0.0011663147
0.0011663147
0.0011663147
0.0011663147
0.0011663147
0.0011663147
0.0011663147
0.0011663147
0.0011663147
0.0011663147
0.0011663147
0.0011663147
0.0011663147
0.0011663147
0.0011663147
0.0011663147
0.0011663147
0.0011663147
0.0011663147
0.0011663147
0.0011663147
0.0011663147
0.0011663147
0.0011663147
0.0011663147
0.0011663147
0.0011663147
0.0011663147
0.0011663147
0.0011663147
0.0011663147
0.0011663147
0.0011663148
2.1494706e-06
9.4909202e-06
2.0728839e-05
4.1190127e-05
4.1533261e-05
4.1606551e-05
8.2504655e-05
2.6106607e-05
2.9121539e-05
2.0644604e-05
1.1327008e-05
1.1984346e-05
1.6462684e-05
3.6715471e-05
0.00014597959
0.0010307256
0.0011663123
0.0011663137
0.0011663146
0.0011663147
0.0011663147
0.0011663147
0.0011663147
0.0011663147
0.0011663147
0.0011663147
0.0011663147
0.0011663147
0.0011663147
0.0011663147
0.0011663147
0.0011663147
0.0011663147
0.0011663147
0.0011663147
0.0011663147
0.0011663147
0.0011663147
0.0011663147
0.0011663147
0.0011663147
0.0011663147
0.0011663147
0.0011663147
0.0011663147
0.0011663147
0.0011663147
0.0011663147
0.0011663147
0.0011663147
0.0011663147
0.0011663147
0.0011663147
0.0011663147
0.0011663147
0.0011663147
0.0011663147
0.0011663147
0.0011663147
0.0011663147
0.0011663147
0.0011663147
0.0011663147
0.0011663147
0.0011663147
0.0011663147
0.0011663147
0.0011663147
0.0011663147
0.0011663147
0.0011663147
0.0011663147
0.0011663147
0.0011663147
0.0011663147
0.0011663147
0.0011663147
0.0011663147
0.0011663147
0.0011663148
1.9908508e-06
7.5441495e-06
1.372137e-05
3.1629245e-05
4.4367714e-05
3.0580762e-05
6.9475285e-05
2.3416437e-05
2.2453537e-05
1.9754497e-05
1.0123732e-05
1.0326948e-05
1.3823886e-05
2.9986171e-05
0.00011206688
0.00074485298
0.0011663118
0.0011663134
0.0011663145
0.0011663147
0.0011663147
0.0011663147
0.0011663147
0.0011663147
0.0011663147
0.0011663147
0.0011663147
0.0011663147
0.0011663147
0.0011663147
0.0011663147
0.0011663147
0.0011663147
0.0011663147
0.0011663147
0.0011663147
0.0011663147
0.0011663147
0.0011663147
0.0011663147
0.0011663147
0.0011663147
0.0011663147
0.0011663147
0.0011663147
0.0011663147
0.0011663147
0.0011663147
0.0011663147
0.0011663147
0.0011663147
0.0011663147
0.0011663147
0.0011663147
0.0011663147
0.0011663147
0.0011663147
0.0011663147
0.0011663147
0.0011663147
0.0011663147
0.0011663147
0.0011663147
0.0011663147
0.0011663147
0.0011663147
0.0011663147
0.0011663147
0.0011663147
0.0011663147
0.0011663147
0.0011663147
0.0011663147
0.0011663147
0.0011663147
0.0011663147
0.0011663147
0.0011663147
0.0011663147
0.0011663149
1.9449591e-06
6.0631458e-06
9.5437489e-06
2.4822087e-05
4.1561036e-05
2.306318e-05
5.625685e-05
2.1591234e-05
1.8047812e-05
1.9109656e-05
9.1557189e-06
8.9878815e-06
1.1749765e-05
2.4832588e-05
8.7717449e-05
0.00055342868
0.0011663114
0.0011663131
0.0011663145
0.0011663147
0.0011663147
0.0011663147
0.0011663147
0.0011663147
0.0011663147
0.0011663147
0.0011663147
0.0011663147
0.0011663147
0.0011663147
0.0011663147
0.0011663147
0.0011663147
0.0011663147
0.0011663147
0.0011663147
0.0011663147
0.0011663147
0.0011663147
0.0011663147
0.0011663147
0.0011663147
0.0011663147
0.0011663147
0.0011663147
0.0011663147
0.0011663147
0.0011663147
0.0011663147
0.0011663147
0.0011663147
0.0011663147
0.0011663147
0.0011663147
0.0011663147
0.0011663147
0.0011663147
0.0011663147
0.0011663147
0.0011663147
0.0011663147
0.0011663147
0.0011663147
0.0011663147
0.0011663147
0.0011663147
0.0011663147
0.0011663147
0.0011663147
0.0011663147
0.0011663147
0.0011663147
0.0011663147
0.0011663147
0.0011663147
0.0011663147
0.0011663147
0.0011663147
0.0011663147
0.0011663149
1.9680617e-06
4.9723382e-06
7.1049253e-06
2.003823e-05
3.39643e-05
1.7950428e-05
4.6260042e-05
2.0818945e-05
1.4882791e-05
1.8653245e-05
8.3550876e-06
7.8834358e-06
1.0083845e-05
2.0791685e-05
6.9734115e-05
0.00042038405
0.0011663109
0.0011663128
0.0011663144
0.0011663147
0.0011663147
0.0011663147
0.0011663147
0.0011663147
0.0011663147
0.0011663147
0.0011663147
0.0011663147
0.0011663147
0.0011663147
0.0011663147
0.0011663147
0.0011663147
0.0011663147
0.0011663147
0.0011663147
0.0011663147
0.0011663147
0.0011663147
0.0011663147
0.0011663147
0.0011663147
0.0011663147
0.0011663147
0.0011663147
0.0011663147
0.0011663147
0.0011663147
0.0011663147
0.0011663147
0.0011663147
0.0011663147
0.0011663147
0.0011663147
0.0011663147
0.0011663147
0.0011663147
0.0011663147
0.0011663147
0.0011663147
0.0011663147
0.0011663147
0.0011663147
0.0011663147
0.0011663147
0.0011663147
0.0011663147
0.0011663147
0.0011663147
0.0011663147
0.0011663147
0.0011663147
0.0011663147
0.0011663147
0.0011663147
0.0011663147
0.0011663147
0.0011663147
0.0011663147
0.0011663149
2.0497656e-06
4.1670981e-06
6.4887889e-06
1.6636193e-05
2.6232112e-05
1.4369895e-05
3.7723128e-05
1.9932007e-05
1.250082e-05
1.8372619e-05
7.682947e-06
6.9594195e-06
8.7200419e-06
1.7558426e-05
5.612459e-05
0.00032496416
0.0011663105
0.0011663124
0.0011663143
0.0011663147
0.0011663147
0.0011663147
0.0011663147
0.0011663147
0.0011663147
0.0011663147
0.0011663147
0.0011663147
0.0011663147
0.0011663147
0.0011663147
0.0011663147
0.0011663147
0.0011663147
0.0011663147
0.0011663147
0.0011663147
0.0011663147
0.0011663147
0.0011663147
0.0011663147
0.0011663147
0.0011663147
0.0011663147
0.0011663147
0.0011663147
0.0011663147
0.0011663147
0.0011663147
0.0011663147
0.0011663147
0.0011663147
0.0011663147
0.0011663147
0.0011663147
0.0011663147
0.0011663147
0.0011663147
0.0011663147
0.0011663147
0.0011663147
0.0011663147
0.0011663147
0.0011663147
0.0011663147
0.0011663147
0.0011663147
0.0011663147
0.0011663147
0.0011663147
0.0011663147
0.0011663147
0.0011663147
0.0011663147
0.0011663147
0.0011663147
0.0011663147
0.0011663147
0.0011663147
0.001166315
2.2434118e-06
3.6366897e-06
5.4102411e-06
1.399849e-05
1.9989637e-05
1.1697868e-05
3.0599113e-05
1.9218387e-05
1.0670983e-05
1.8226899e-05
7.1148641e-06
6.1792884e-06
7.5876212e-06
1.492997e-05
4.5618956e-05
0.00025476196
0.00116631
0.001166312
0.0011663142
0.0011663146
0.0011663147
0.0011663147
0.0011663147
0.0011663147
0.0011663147
0.0011663147
0.0011663147
0.0011663147
0.0011663147
0.0011663147
0.0011663147
0.0011663147
0.0011663147
0.0011663147
0.0011663147
0.0011663147
0.0011663147
0.0011663147
0.0011663147
0.0011663147
0.0011663147
0.0011663147
0.0011663147
0.0011663147
0.0011663147
0.0011663147
0.0011663147
0.0011663147
0.0011663147
0.0011663147
0.0011663147
0.0011663147
0.0011663147
0.0011663147
0.0011663147
0.0011663147
0.0011663147
0.0011663147
0.0011663147
0.0011663147
0.0011663147
0.0011663147
0.0011663147
0.0011663147
0.0011663147
0.0011663147
0.0011663147
0.0011663147
0.0011663147
0.0011663147
0.0011663147
0.0011663147
0.0011663147
0.0011663147
0.0011663147
0.0011663147
0.0011663147
0.0011663147
0.0011663147
0.001166315
2.6520289e-06
3.2149529e-06
3.4523955e-06
1.2807681e-05
1.5323728e-05
9.6836346e-06
2.5074241e-05
1.9081693e-05
9.2436437e-06
1.8077396e-05
6.6253848e-06
5.5136799e-06
6.6365904e-06
1.276783e-05
3.7389345e-05
0.00020210266
0.0011663095
0.0011663116
0.0011663141
0.0011663146
0.0011663147
0.0011663147
0.0011663147
0.0011663147
0.0011663147
0.0011663147
0.0011663147
0.0011663147
0.0011663147
0.0011663147
0.0011663147
0.0011663147
0.0011663147
0.0011663147
0.0011663147
0.0011663147
0.0011663147
0.0011663147
0.0011663147
0.0011663147
0.0011663147
0.0011663147
0.0011663147
0.0011663147
0.0011663147
0.0011663147
0.0011663147
0.0011663147
0.0011663147
0.0011663147
0.0011663147
0.0011663147
0.0011663147
0.0011663147
0.0011663147
0.0011663147
0.0011663147
0.0011663147
0.0011663147
0.0011663147
0.0011663147
0.0011663147
0.0011663147
0.0011663147
0.0011663147
0.0011663147
0.0011663147
0.0011663147
0.0011663147
0.0011663147
0.0011663147
0.0011663147
0.0011663147
0.0011663147
0.0011663147
0.0011663147
0.0011663147
0.0011663147
0.0011663147
0.001166315
3.3770211e-06
2.78546e-06
2.7930026e-06
1.1002698e-05
1.2271483e-05
8.1302935e-06
2.0943133e-05
1.9523911e-05
8.0914061e-06
1.7615599e-05
6.1768672e-06
4.9312174e-06
5.8268687e-06
1.0971658e-05
3.0886884e-05
0.0001621479
0.0011663091
0.0011663111
0.001166314
0.0011663146
0.0011663147
0.0011663147
0.0011663147
0.0011663147
0.0011663147
0.0011663147
0.0011663147
0.0011663147
0.0011663147
0.0011663147
0.0011663147
0.0011663147
0.0011663147
0.0011663147
0.0011663147
0.0011663147
0.0011663147
0.0011663147
0.0011663147
0.0011663147
0.0011663147
0.0011663147
0.0011663147
0.0011663147
0.0011663147
0.0011663147
0.0011663147
0.0011663147
0.0011663147
0.0011663147
0.0011663147
0.0011663147
0.0011663147
0.0011663147
0.0011663147
0.0011663147
0.0011663147
0.0011663147
0.0011663147
0.0011663147
0.0011663147
0.0011663147
0.0011663147
0.0011663147
0.0011663147
0.0011663147
0.0011663147
0.0011663147
0.0011663147
0.0011663147
0.0011663147
0.0011663147
0.0011663147
0.0011663147
0.0011663147
0.0011663147
0.0011663147
0.0011663147
0.0011663147
0.0011663151
3.3860774e-06
2.560111e-06
2.2565418e-06
1.0824168e-05
9.7339214e-06
6.9427032e-06
1.8324903e-05
1.9737593e-05
7.0974232e-06
1.671725e-05
5.7260739e-06
4.4021302e-06
5.123992e-06
9.4641407e-06
2.5736282e-05
0.00013177559
0.0011663087
0.0011663105
0.0011663138
0.0011663146
0.0011663147
0.0011663147
0.0011663147
0.0011663147
0.0011663147
0.0011663147
0.0011663147
0.0011663147
0.0011663147
0.0011663147
0.0011663147
0.0011663147
0.0011663147
0.0011663147
0.0011663147
0.0011663147
0.0011663147
0.0011663147
0.0011663147
0.0011663147
0.0011663147
0.0011663147
0.0011663147
0.0011663147
0.0011663147
0.0011663147
0.0011663147
0.0011663147
0.0011663147
0.0011663147
0.0011663147
0.0011663147
0.0011663147
0.0011663147
0.0011663147
0.0011663147
0.0011663147
0.0011663147
0.0011663147
0.0011663147
0.0011663147
0.0011663147
0.0011663147
0.0011663147
0.0011663147
0.0011663147
0.0011663147
0.0011663147
0.0011663147
0.0011663147
0.0011663147
0.0011663147
0.0011663147
0.0011663147
0.0011663147
0.0011663147
0.0011663147
0.0011663147
0.0011663147
0.0011663151
3.1704182e-06
1.8839389e-06
1.8636866e-06
8.5324887e-06
8.0258763e-06
5.7323338e-06
1.560895e-05
1.8515456e-05
6.1982781e-06
1.5656607e-05
5.2834063e-06
3.9175292e-06
4.5114828e-06
8.1962507e-06
2.1673329e-05
0.00010885933
0.0011663083
0.0011663099
0.0011663137
0.0011663146
0.0011663147
0.0011663147
0.0011663147
0.0011663147
0.0011663147
0.0011663147
0.0011663147
0.0011663147
0.0011663147
0.0011663147
0.0011663147
0.0011663147
0.0011663147
0.0011663147
0.0011663147
0.0011663147
0.0011663147
0.0011663147
0.0011663147
0.0011663147
0.0011663147
0.0011663147
0.0011663147
0.0011663147
0.0011663147
0.0011663147
0.0011663147
0.0011663147
0.0011663147
0.0011663147
0.0011663147
0.0011663147
0.0011663147
0.0011663147
0.0011663147
0.0011663147
0.0011663147
0.0011663147
0.0011663147
0.0011663147
0.0011663147
0.0011663147
0.0011663147
0.0011663147
0.0011663147
0.0011663147
0.0011663147
0.0011663147
0.0011663147
0.0011663147
0.0011663147
0.0011663147
0.0011663147
0.0011663147
0.0011663147
0.0011663147
0.0011663147
0.0011663147
0.0011663147
0.0011663151
2.3106465e-06
1.6562379e-06
1.5184199e-06
7.456857e-06
6.9148656e-06
5.5855105e-06
1.2827186e-05
1.66341e-05
5.4295747e-06
1.4445122e-05
4.8891324e-06
3.5019952e-06
3.9967358e-06
7.1603897e-06
1.8530988e-05
9.1854722e-05
0.0011663079
0.0011663092
0.0011663135
0.0011663146
0.0011663147
0.0011663147
0.0011663147
0.0011663147
0.0011663147
0.0011663147
0.0011663147
0.0011663147
0.0011663147
0.0011663147
0.0011663147
0.0011663147
0.0011663147
0.0011663147
0.0011663147
0.0011663147
0.0011663147
0.0011663147
0.0011663147
0.0011663147
0.0011663147
0.0011663147
0.0011663147
0.0011663147
0.0011663147
0.0011663147
0.0011663147
0.0011663147
0.0011663147
0.0011663147
0.0011663147
0.0011663147
0.0011663147
0.0011663147
0.0011663147
0.0011663147
0.0011663147
0.0011663147
0.0011663147
0.0011663147
0.0011663147
0.0011663147
0.0011663147
0.0011663147
0.0011663147
0.0011663147
0.0011663147
0.0011663147
0.0011663147
0.0011663147
0.0011663147
0.0011663147
0.0011663147
0.0011663147
0.0011663147
0.0011663147
0.0011663147
0.0011663147
0.0011663147
0.0011663152
2.1871106e-06
1.7176474e-06
1.2219879e-06
1.0982847e-05
5.3108975e-06
5.0721508e-06
1.1326031e-05
1.7189943e-05
4.984467e-06
1.3067508e-05
4.5420094e-06
3.182315e-06
3.5904999e-06
6.3681065e-06
1.6231481e-05
7.9814421e-05
0.0011663075
0.0011663086
0.0011663133
0.0011663146
0.0011663147
0.0011663147
0.0011663147
0.0011663147
0.0011663147
0.0011663147
0.0011663147
0.0011663147
0.0011663147
0.0011663147
0.0011663147
0.0011663147
0.0011663147
0.0011663147
0.0011663147
0.0011663147
0.0011663147
0.0011663147
0.0011663147
0.0011663147
0.0011663147
0.0011663147
0.0011663147
0.0011663147
0.0011663147
0.0011663147
0.0011663147
0.0011663147
0.0011663147
0.0011663147
0.0011663147
0.0011663147
0.0011663147
0.0011663147
0.0011663147
0.0011663147
0.0011663147
0.0011663147
0.0011663147
0.0011663147
0.0011663147
0.0011663147
0.0011663147
0.0011663147
0.0011663147
0.0011663147
0.0011663147
0.0011663147
0.0011663147
0.0011663147
0.0011663147
0.0011663147
0.0011663147
0.0011663147
0.0011663147
0.0011663147
0.0011663147
0.0011663147
0.0011663147
0.0011663152
2.4799222e-06
1.3382101e-06
1.0750772e-06
6.5808743e-06
4.6086912e-06
4.6363192e-06
1.127221e-05
1.5361039e-05
4.6412256e-06
1.1454564e-05
4.2185484e-06
2.9346917e-06
3.2866816e-06
5.8084632e-06
1.4744982e-05
7.2492437e-05
0.001166307
0.001166308
0.0011663132
0.0011663146
0.0011663147
0.0011663147
0.0011663147
0.0011663147
0.0011663147
0.0011663147
0.0011663147
0.0011663147
0.0011663147
0.0011663147
0.0011663147
0.0011663147
0.0011663147
0.0011663147
0.0011663147
0.0011663147
0.0011663147
0.0011663147
0.0011663147
0.0011663147
0.0011663147
0.0011663147
0.0011663147
0.0011663147
0.0011663147
0.0011663147
0.0011663147
0.0011663147
0.0011663147
0.0011663147
0.0011663147
0.0011663147
0.0011663147
0.0011663147
0.0011663147
0.0011663147
0.0011663147
0.0011663147
0.0011663147
0.0011663147
0.0011663147
0.0011663147
0.0011663147
0.0011663147
0.0011663147
0.0011663147
0.0011663147
0.0011663147
0.0011663147
0.0011663147
0.0011663147
0.0011663147
0.0011663147
0.0011663147
0.0011663147
0.0011663147
0.0011663147
0.0011663147
0.0011663147
0.0011663153
1.7984872e-06
1.3884612e-06
9.3711024e-07
5.6519296e-06
4.2012299e-06
4.850689e-06
1.165164e-05
1.2511056e-05
5.0122475e-06
1.3972892e-05
3.8668812e-06
2.7386712e-06
3.0702344e-06
5.4688347e-06
1.4076589e-05
6.9966202e-05
0.0011663061
0.0011663077
0.0011663131
0.0011663146
0.0011663147
0.0011663147
0.0011663147
0.0011663147
0.0011663147
0.0011663147
0.0011663147
0.0011663147
0.0011663147
0.0011663147
0.0011663147
0.0011663147
0.0011663147
0.0011663147
0.0011663147
0.0011663147
0.0011663147
0.0011663147
0.0011663147
0.0011663147
0.0011663147
0.0011663147
0.0011663147
0.0011663147
0.0011663147
0.0011663147
0.0011663147
0.0011663147
0.0011663147
0.0011663147
0.0011663147
0.0011663147
0.0011663147
0.0011663147
0.0011663147
0.0011663147
0.0011663147
0.0011663147
0.0011663147
0.0011663147
0.0011663147
0.0011663147
0.0011663147
0.0011663147
0.0011663147
0.0011663147
0.0011663147
0.0011663147
0.0011663147
0.0011663147
0.0011663147
0.0011663147
0.0011663147
0.0011663147
0.0011663147
0.0011663147
0.0011663147
0.0011663147
0.0011663147
0.0011663153
1.2841021e-06
1.2069736e-06
8.4498304e-07
3.8984269e-06
4.1048911e-06
5.1405809e-06
1.2673763e-05
1.0580775e-05
5.7434373e-06
1.1567231e-05
3.513282e-06
2.5942834e-06
2.9388627e-06
5.3459108e-06
1.4271549e-05
7.2800274e-05
0.0011663049
0.0011663076
0.0011663132
0.0011663146
0.0011663147
0.0011663147
0.0011663147
0.0011663147
0.0011663147
0.0011663147
0.0011663147
0.0011663147
0.0011663147
0.0011663147
0.0011663147
0.0011663147
0.0011663147
0.0011663147
0.0011663147
0.0011663147
0.0011663147
0.0011663147
0.0011663147
0.0011663147
0.0011663147
0.0011663147
0.0011663147
0.0011663147
0.0011663147
0.0011663147
0.0011663147
0.0011663147
0.0011663147
0.0011663147
0.0011663147
0.0011663147
0.0011663147
0.0011663147
0.0011663147
0.0011663147
0.0011663147
0.0011663147
0.0011663147
0.0011663147
0.0011663147
0.0011663147
0.0011663147
0.0011663147
0.0011663147
0.0011663147
0.0011663147
0.0011663147
0.0011663147
0.0011663147
0.0011663147
0.0011663147
0.0011663147
0.0011663147
0.0011663147
0.0011663147
0.0011663147
0.0011663147
0.0011663147
0.0011663154
1.0934387e-06
1.2957583e-06
7.4871627e-07
3.614968e-06
4.2144263e-06
3.5771316e-06
1.0188125e-05
9.5966432e-06
5.3362801e-06
7.3180938e-06
3.166e-06
2.4854672e-06
2.8870592e-06
5.4426454e-06
1.5451782e-05
8.2224566e-05
0.0011663038
0.0011663078
0.0011663134
0.0011663146
0.0011663147
0.0011663147
0.0011663147
0.0011663147
0.0011663147
0.0011663147
0.0011663147
0.0011663147
0.0011663147
0.0011663147
0.0011663147
0.0011663147
0.0011663147
0.0011663147
0.0011663147
0.0011663147
0.0011663147
0.0011663147
0.0011663147
0.0011663147
0.0011663147
0.0011663147
0.0011663147
0.0011663147
0.0011663147
0.0011663147
0.0011663147
0.0011663147
0.0011663147
0.0011663147
0.0011663147
0.0011663147
0.0011663147
0.0011663147
0.0011663147
0.0011663147
0.0011663147
0.0011663147
0.0011663147
0.0011663147
0.0011663147
0.0011663147
0.0011663147
0.0011663147
0.0011663147
0.0011663147
0.0011663147
0.0011663147
0.0011663147
0.0011663147
0.0011663147
0.0011663147
0.0011663147
0.0011663147
0.0011663147
0.0011663147
0.0011663147
0.0011663147
0.0011663147
0.0011663154
8.9312379e-07
1.161556e-06
6.9659384e-07
3.2841041e-06
4.5586932e-06
2.2076379e-06
7.936711e-06
8.978878e-06
4.2414648e-06
5.2675428e-06
2.8698839e-06
2.401453e-06
2.9078196e-06
5.7562814e-06
1.779136e-05
0.00010063192
0.0011663032
0.0011663083
0.0011663136
0.0011663146
0.0011663147
0.0011663147
0.0011663147
0.0011663147
0.0011663147
0.0011663147
0.0011663147
0.0011663147
0.0011663147
0.0011663147
0.0011663147
0.0011663147
0.0011663147
0.0011663147
0.0011663147
0.0011663147
0.0011663147
0.0011663147
0.0011663147
0.0011663147
0.0011663147
0.0011663147
0.0011663147
0.0011663147
0.0011663147
0.0011663147
0.0011663147
0.0011663147
0.0011663147
0.0011663147
0.0011663147
0.0011663147
0.0011663147
0.0011663147
0.0011663147
0.0011663147
0.0011663147
0.0011663147
0.0011663147
0.0011663147
0.0011663147
0.0011663147
0.0011663147
0.0011663147
0.0011663147
0.0011663147
0.0011663147
0.0011663147
0.0011663147
0.0011663147
0.0011663147
0.0011663147
0.0011663147
0.0011663147
0.0011663147
0.0011663147
0.0011663147
0.0011663147
0.0011663147
0.0011663155
8.3979996e-07
8.149709e-07
7.1689949e-07
3.7113455e-06
4.8550804e-06
2.190249e-06
6.9956003e-06
7.9180922e-06
4.1533718e-06
4.5690103e-06
2.6415412e-06
2.3557455e-06
2.9908177e-06
6.2283414e-06
2.1183038e-05
0.00012937786
0.0011663032
0.0011663091
0.0011663139
0.0011663147
0.0011663147
0.0011663147
0.0011663147
0.0011663147
0.0011663147
0.0011663147
0.0011663147
0.0011663147
0.0011663147
0.0011663147
0.0011663147
0.0011663147
0.0011663147
0.0011663147
0.0011663147
0.0011663147
0.0011663147
0.0011663147
0.0011663147
0.0011663147
0.0011663147
0.0011663147
0.0011663147
0.0011663147
0.0011663147
0.0011663147
0.0011663147
0.0011663147
0.0011663147
0.0011663147
0.0011663147
0.0011663147
0.0011663147
0.0011663147
0.0011663147
0.0011663147
0.0011663147
0.0011663147
0.0011663147
0.0011663147
0.0011663147
0.0011663147
0.0011663147
0.0011663147
0.0011663147
0.0011663147
0.0011663147
0.0011663147
0.0011663147
0.0011663147
0.0011663147
0.0011663147
0.0011663147
0.0011663147
0.0011663147
0.0011663147
0.0011663147
0.0011663147
0.0011663147
0.0011663155
6.8721539e-07
8.3750974e-07
7.9787962e-07
4.2625928e-06
3.8569523e-06
2.5814871e-06
6.0561518e-06
7.1567723e-06
4.2637018e-06
4.1788574e-06
2.4666106e-06
2.3506142e-06
3.0894963e-06
6.6957798e-06
2.4632857e-05
0.00016170848
0.0011663035
0.0011663097
0.0011663141
0.0011663147
0.0011663147
0.0011663147
0.0011663147
0.0011663147
0.0011663147
0.0011663147
0.0011663147
0.0011663147
0.0011663147
0.0011663147
0.0011663147
0.0011663147
0.0011663147
0.0011663147
0.0011663147
0.0011663147
0.0011663147
0.0011663147
0.0011663147
0.0011663147
0.0011663147
0.0011663147
0.0011663147
0.0011663147
0.0011663147
0.0011663147
0.0011663147
0.0011663147
0.0011663147