/*--------------------------------*- C++ -*----------------------------------*\
| =========                 |                                                 |
| \\      /  F ield         | OpenFOAM: The Open Source CFD Toolbox           |
|  \\    /   O peration     | Version:  2406                                  |
|   \\  /    A nd           | Website:  www.openfoam.com                      |
|    \\/     M anipulation  |                                                 |
\*---------------------------------------------------------------------------*/
FoamFile
{
    version     2.0;
    format      ascii;
    arch        "LSB;label=32;scalar=64";
    class       volScalarField;
    location    "8e-05";
    object      k;
}
// * * * * * * * * * * * * * * * * * * * * * * * * * * * * * * * * * * * * * //

dimensions      [0 2 -2 0 0 0 0];

internalField   nonuniform List<scalar> 
16000
(
0.010747699
0.009967232
0.01000691
0.010002107
0.010001326
0.010001562
0.010000774
0.010000266
0.0099996358
0.0099993528
0.0099992708
0.0099992687
0.0099992758
0.0099992834
0.0099992822
0.009999281
0.0099992801
0.00999928
0.00999928
0.00999928
0.00999928
0.00999928
0.00999928
0.00999928
0.00999928
0.00999928
0.00999928
0.00999928
0.00999928
0.00999928
0.00999928
0.00999928
0.00999928
0.00999928
0.00999928
0.00999928
0.00999928
0.00999928
0.00999928
0.00999928
0.00999928
0.00999928
0.00999928
0.00999928
0.00999928
0.00999928
0.00999928
0.00999928
0.00999928
0.00999928
0.00999928
0.00999928
0.00999928
0.00999928
0.00999928
0.00999928
0.00999928
0.00999928
0.00999928
0.00999928
0.00999928
0.00999928
0.00999928
0.00999928
0.00999928
0.00999928
0.00999928
0.00999928
0.00999928
0.00999928
0.00999928
0.00999928
0.00999928
0.00999928
0.00999928
0.00999928
0.00999928
0.00999928
0.00999928
0.0099992801
0.010755997
0.0099817052
0.010000885
0.01000377
0.010001019
0.010001253
0.010000479
0.0099996319
0.0099989378
0.0099988567
0.0099990317
0.0099992139
0.0099992472
0.0099992752
0.0099992796
0.0099992821
0.0099992806
0.0099992801
0.00999928
0.00999928
0.00999928
0.00999928
0.00999928
0.00999928
0.00999928
0.00999928
0.00999928
0.00999928
0.00999928
0.00999928
0.00999928
0.00999928
0.00999928
0.00999928
0.00999928
0.00999928
0.00999928
0.00999928
0.00999928
0.00999928
0.00999928
0.00999928
0.00999928
0.00999928
0.00999928
0.00999928
0.00999928
0.00999928
0.00999928
0.00999928
0.00999928
0.00999928
0.00999928
0.00999928
0.00999928
0.00999928
0.00999928
0.00999928
0.00999928
0.00999928
0.00999928
0.00999928
0.00999928
0.00999928
0.00999928
0.00999928
0.00999928
0.00999928
0.00999928
0.00999928
0.00999928
0.00999928
0.00999928
0.00999928
0.00999928
0.00999928
0.00999928
0.00999928
0.00999928
0.0099992802
0.010765202
0.0099965766
0.0099880955
0.010008932
0.009997785
0.010001357
0.0099992418
0.0099982514
0.0099972232
0.0099976109
0.0099982647
0.0099990952
0.0099992176
0.0099992782
0.0099992745
0.0099992831
0.0099992813
0.0099992803
0.00999928
0.00999928
0.00999928
0.00999928
0.00999928
0.00999928
0.00999928
0.00999928
0.00999928
0.00999928
0.00999928
0.00999928
0.00999928
0.00999928
0.00999928
0.00999928
0.00999928
0.00999928
0.00999928
0.00999928
0.00999928
0.00999928
0.00999928
0.00999928
0.00999928
0.00999928
0.00999928
0.00999928
0.00999928
0.00999928
0.00999928
0.00999928
0.00999928
0.00999928
0.00999928
0.00999928
0.00999928
0.00999928
0.00999928
0.00999928
0.00999928
0.00999928
0.00999928
0.00999928
0.00999928
0.00999928
0.00999928
0.00999928
0.00999928
0.00999928
0.00999928
0.00999928
0.00999928
0.00999928
0.00999928
0.00999928
0.00999928
0.00999928
0.00999928
0.00999928
0.00999928
0.0099992804
0.010772748
0.01001569
0.0099721357
0.010013868
0.0099927306
0.010001952
0.00999746
0.0099968377
0.0099951971
0.0099959371
0.0099970234
0.0099986722
0.0099991847
0.0099992834
0.0099992695
0.0099992844
0.0099992822
0.0099992805
0.00999928
0.00999928
0.00999928
0.00999928
0.00999928
0.00999928
0.00999928
0.00999928
0.00999928
0.00999928
0.00999928
0.00999928
0.00999928
0.00999928
0.00999928
0.00999928
0.00999928
0.00999928
0.00999928
0.00999928
0.00999928
0.00999928
0.00999928
0.00999928
0.00999928
0.00999928
0.00999928
0.00999928
0.00999928
0.00999928
0.00999928
0.00999928
0.00999928
0.00999928
0.00999928
0.00999928
0.00999928
0.00999928
0.00999928
0.00999928
0.00999928
0.00999928
0.00999928
0.00999928
0.00999928
0.00999928
0.00999928
0.00999928
0.00999928
0.00999928
0.00999928
0.00999928
0.00999928
0.00999928
0.00999928
0.00999928
0.00999928
0.00999928
0.00999928
0.00999928
0.00999928
0.0099992805
0.010779184
0.010035643
0.0099551436
0.010019383
0.0099873459
0.010002062
0.0099941088
0.0099966855
0.009992916
0.0099940947
0.0099954915
0.0099979786
0.0099990343
0.0099992886
0.0099992667
0.0099992856
0.0099992832
0.0099992808
0.0099992801
0.00999928
0.00999928
0.00999928
0.00999928
0.00999928
0.00999928
0.00999928
0.00999928
0.00999928
0.00999928
0.00999928
0.00999928
0.00999928
0.00999928
0.00999928
0.00999928
0.00999928
0.00999928
0.00999928
0.00999928
0.00999928
0.00999928
0.00999928
0.00999928
0.00999928
0.00999928
0.00999928
0.00999928
0.00999928
0.00999928
0.00999928
0.00999928
0.00999928
0.00999928
0.00999928
0.00999928
0.00999928
0.00999928
0.00999928
0.00999928
0.00999928
0.00999928
0.00999928
0.00999928
0.00999928
0.00999928
0.00999928
0.00999928
0.00999928
0.00999928
0.00999928
0.00999928
0.00999928
0.00999928
0.00999928
0.00999928
0.00999928
0.00999928
0.00999928
0.00999928
0.0099992807
0.010780807
0.010061436
0.0099343777
0.010025651
0.0099834802
0.010000413
0.0099914757
0.009995885
0.009990295
0.0099922622
0.0099937141
0.0099970628
0.0099987363
0.0099992929
0.0099992634
0.0099992865
0.0099992843
0.0099992813
0.0099992801
0.00999928
0.00999928
0.00999928
0.00999928
0.00999928
0.00999928
0.00999928
0.00999928
0.00999928
0.00999928
0.00999928
0.00999928
0.00999928
0.00999928
0.00999928
0.00999928
0.00999928
0.00999928
0.00999928
0.00999928
0.00999928
0.00999928
0.00999928
0.00999928
0.00999928
0.00999928
0.00999928
0.00999928
0.00999928
0.00999928
0.00999928
0.00999928
0.00999928
0.00999928
0.00999928
0.00999928
0.00999928
0.00999928
0.00999928
0.00999928
0.00999928
0.00999928
0.00999928
0.00999928
0.00999928
0.00999928
0.00999928
0.00999928
0.00999928
0.00999928
0.00999928
0.00999928
0.00999928
0.00999928
0.00999928
0.00999928
0.00999928
0.00999928
0.00999928
0.00999928
0.0099992808
0.010777519
0.010093237
0.0099093259
0.010033259
0.009979265
0.0099984146
0.0099894753
0.0099941117
0.0099874388
0.0099906682
0.0099917232
0.0099959432
0.009998309
0.009999291
0.0099992586
0.0099992871
0.0099992857
0.0099992818
0.0099992802
0.00999928
0.00999928
0.00999928
0.00999928
0.00999928
0.00999928
0.00999928
0.00999928
0.00999928
0.00999928
0.00999928
0.00999928
0.00999928
0.00999928
0.00999928
0.00999928
0.00999928
0.00999928
0.00999928
0.00999928
0.00999928
0.00999928
0.00999928
0.00999928
0.00999928
0.00999928
0.00999928
0.00999928
0.00999928
0.00999928
0.00999928
0.00999928
0.00999928
0.00999928
0.00999928
0.00999928
0.00999928
0.00999928
0.00999928
0.00999928
0.00999928
0.00999928
0.00999928
0.00999928
0.00999928
0.00999928
0.00999928
0.00999928
0.00999928
0.00999928
0.00999928
0.00999928
0.00999928
0.00999928
0.00999928
0.00999928
0.00999928
0.00999928
0.00999928
0.00999928
0.009999281
0.01076889
0.010132105
0.0098796433
0.010042535
0.0099739514
0.0099970258
0.009988003
0.0099904967
0.0099855981
0.0099886566
0.0099895288
0.0099946315
0.0099977574
0.0099992328
0.0099992522
0.0099992876
0.0099992871
0.0099992825
0.0099992802
0.00999928
0.00999928
0.00999928
0.00999928
0.00999928
0.00999928
0.00999928
0.00999928
0.00999928
0.00999928
0.00999928
0.00999928
0.00999928
0.00999928
0.00999928
0.00999928
0.00999928
0.00999928
0.00999928
0.00999928
0.00999928
0.00999928
0.00999928
0.00999928
0.00999928
0.00999928
0.00999928
0.00999928
0.00999928
0.00999928
0.00999928
0.00999928
0.00999928
0.00999928
0.00999928
0.00999928
0.00999928
0.00999928
0.00999928
0.00999928
0.00999928
0.00999928
0.00999928
0.00999928
0.00999928
0.00999928
0.00999928
0.00999928
0.00999928
0.00999928
0.00999928
0.00999928
0.00999928
0.00999928
0.00999928
0.00999928
0.00999928
0.00999928
0.00999928
0.00999928
0.0099992812
0.010754885
0.010177979
0.0098454759
0.010053187
0.0099681282
0.0099955979
0.0099864664
0.0099872402
0.0099832073
0.0099865479
0.0099871368
0.0099931329
0.0099970838
0.0099991081
0.0099992444
0.0099992886
0.0099992887
0.0099992834
0.0099992803
0.00999928
0.00999928
0.00999928
0.00999928
0.00999928
0.00999928
0.00999928
0.00999928
0.00999928
0.00999928
0.00999928
0.00999928
0.00999928
0.00999928
0.00999928
0.00999928
0.00999928
0.00999928
0.00999928
0.00999928
0.00999928
0.00999928
0.00999928
0.00999928
0.00999928
0.00999928
0.00999928
0.00999928
0.00999928
0.00999928
0.00999928
0.00999928
0.00999928
0.00999928
0.00999928
0.00999928
0.00999928
0.00999928
0.00999928
0.00999928
0.00999928
0.00999928
0.00999928
0.00999928
0.00999928
0.00999928
0.00999928
0.00999928
0.00999928
0.00999928
0.00999928
0.00999928
0.00999928
0.00999928
0.00999928
0.00999928
0.00999928
0.00999928
0.00999928
0.00999928
0.0099992814
0.010734601
0.010232964
0.0098057304
0.010065227
0.0099620924
0.0099939662
0.0099847348
0.0099848444
0.0099800342
0.0099841481
0.0099845515
0.0099914486
0.0099962866
0.0099989214
0.0099992351
0.0099992911
0.0099992903
0.0099992843
0.0099992805
0.00999928
0.00999928
0.00999928
0.00999928
0.00999928
0.00999928
0.00999928
0.00999928
0.00999928
0.00999928
0.00999928
0.00999928
0.00999928
0.00999928
0.00999928
0.00999928
0.00999928
0.00999928
0.00999928
0.00999928
0.00999928
0.00999928
0.00999928
0.00999928
0.00999928
0.00999928
0.00999928
0.00999928
0.00999928
0.00999928
0.00999928
0.00999928
0.00999928
0.00999928
0.00999928
0.00999928
0.00999928
0.00999928
0.00999928
0.00999928
0.00999928
0.00999928
0.00999928
0.00999928
0.00999928
0.00999928
0.00999928
0.00999928
0.00999928
0.00999928
0.00999928
0.00999928
0.00999928
0.00999928
0.00999928
0.00999928
0.00999928
0.00999928
0.00999928
0.00999928
0.0099992816
0.010705448
0.010302033
0.0097571718
0.010079745
0.0099556949
0.0099921436
0.0099828199
0.0099824034
0.0099769589
0.0099812755
0.009981831
0.0099895717
0.0099953607
0.0099986718
0.0099992246
0.0099992942
0.0099992921
0.0099992855
0.0099992807
0.00999928
0.00999928
0.00999928
0.00999928
0.00999928
0.00999928
0.00999928
0.00999928
0.00999928
0.00999928
0.00999928
0.00999928
0.00999928
0.00999928
0.00999928
0.00999928
0.00999928
0.00999928
0.00999928
0.00999928
0.00999928
0.00999928
0.00999928
0.00999928
0.00999928
0.00999928
0.00999928
0.00999928
0.00999928
0.00999928
0.00999928
0.00999928
0.00999928
0.00999928
0.00999928
0.00999928
0.00999928
0.00999928
0.00999928
0.00999928
0.00999928
0.00999928
0.00999928
0.00999928
0.00999928
0.00999928
0.00999928
0.00999928
0.00999928
0.00999928
0.00999928
0.00999928
0.00999928
0.00999928
0.00999928
0.00999928
0.00999928
0.00999928
0.00999928
0.00999928
0.0099992818
0.010666324
0.010387788
0.0096978659
0.010097431
0.0099487525
0.009990165
0.0099807239
0.0099797101
0.009973953
0.0099778897
0.0099790893
0.0099874888
0.0099942973
0.0099983566
0.009999213
0.0099992974
0.0099992939
0.0099992867
0.0099992809
0.00999928
0.00999928
0.00999928
0.00999928
0.00999928
0.00999928
0.00999928
0.00999928
0.00999928
0.00999928
0.00999928
0.00999928
0.00999928
0.00999928
0.00999928
0.00999928
0.00999928
0.00999928
0.00999928
0.00999928
0.00999928
0.00999928
0.00999928
0.00999928
0.00999928
0.00999928
0.00999928
0.00999928
0.00999928
0.00999928
0.00999928
0.00999928
0.00999928
0.00999928
0.00999928
0.00999928
0.00999928
0.00999928
0.00999928
0.00999928
0.00999928
0.00999928
0.00999928
0.00999928
0.00999928
0.00999928
0.00999928
0.00999928
0.00999928
0.00999928
0.00999928
0.00999928
0.00999928
0.00999928
0.00999928
0.00999928
0.00999928
0.00999928
0.00999928
0.00999928
0.009999282
0.010620564
0.010485666
0.0096290712
0.010118238
0.0099409871
0.0099881613
0.0099785456
0.0099767487
0.009970937
0.0099741477
0.0099761827
0.0099851797
0.0099930836
0.0099979708
0.0099991895
0.0099993006
0.0099992958
0.0099992881
0.0099992812
0.00999928
0.00999928
0.00999928
0.00999928
0.00999928
0.00999928
0.00999928
0.00999928
0.00999928
0.00999928
0.00999928
0.00999928
0.00999928
0.00999928
0.00999928
0.00999928
0.00999928
0.00999928
0.00999928
0.00999928
0.00999928
0.00999928
0.00999928
0.00999928
0.00999928
0.00999928
0.00999928
0.00999928
0.00999928
0.00999928
0.00999928
0.00999928
0.00999928
0.00999928
0.00999928
0.00999928
0.00999928
0.00999928
0.00999928
0.00999928
0.00999928
0.00999928
0.00999928
0.00999928
0.00999928
0.00999928
0.00999928
0.00999928
0.00999928
0.00999928
0.00999928
0.00999928
0.00999928
0.00999928
0.00999928
0.00999928
0.00999928
0.00999928
0.00999928
0.00999928
0.0099992823
0.010570403
0.010592653
0.0095516926
0.010142312
0.0099323783
0.0099858668
0.0099762492
0.0099735453
0.0099678471
0.0099701147
0.0099730513
0.0099826183
0.0099917028
0.0099975078
0.0099991371
0.0099993039
0.0099992977
0.0099992897
0.0099992815
0.0099992801
0.00999928
0.00999928
0.00999928
0.00999928
0.00999928
0.00999928
0.00999928
0.00999928
0.00999928
0.00999928
0.00999928
0.00999928
0.00999928
0.00999928
0.00999928
0.00999928
0.00999928
0.00999928
0.00999928
0.00999928
0.00999928
0.00999928
0.00999928
0.00999928
0.00999928
0.00999928
0.00999928
0.00999928
0.00999928
0.00999928
0.00999928
0.00999928
0.00999928
0.00999928
0.00999928
0.00999928
0.00999928
0.00999928
0.00999928
0.00999928
0.00999928
0.00999928
0.00999928
0.00999928
0.00999928
0.00999928
0.00999928
0.00999928
0.00999928
0.00999928
0.00999928
0.00999928
0.00999928
0.00999928
0.00999928
0.00999928
0.00999928
0.00999928
0.00999928
0.0099992825
0.010512402
0.010714328
0.009462854
0.010170518
0.0099228014
0.0099829948
0.0099737866
0.00997006
0.0099646452
0.0099658158
0.0099696739
0.0099797783
0.0099901344
0.0099969591
0.0099990533
0.0099993075
0.0099992996
0.0099992914
0.009999282
0.0099992801
0.00999928
0.00999928
0.00999928
0.00999928
0.00999928
0.00999928
0.00999928
0.00999928
0.00999928
0.00999928
0.00999928
0.00999928
0.00999928
0.00999928
0.00999928
0.00999928
0.00999928
0.00999928
0.00999928
0.00999928
0.00999928
0.00999928
0.00999928
0.00999928
0.00999928
0.00999928
0.00999928
0.00999928
0.00999928
0.00999928
0.00999928
0.00999928
0.00999928
0.00999928
0.00999928
0.00999928
0.00999928
0.00999928
0.00999928
0.00999928
0.00999928
0.00999928
0.00999928
0.00999928
0.00999928
0.00999928
0.00999928
0.00999928
0.00999928
0.00999928
0.00999928
0.00999928
0.00999928
0.00999928
0.00999928
0.00999928
0.00999928
0.00999928
0.00999928
0.0099992828
0.01044436
0.010853266
0.0093610139
0.010203786
0.0099116501
0.0099796711
0.0099710995
0.0099662138
0.0099612854
0.0099612512
0.009966018
0.0099766339
0.0099883576
0.0099963154
0.0099989354
0.0099993112
0.0099993015
0.0099992934
0.0099992825
0.0099992801
0.00999928
0.00999928
0.00999928
0.00999928
0.00999928
0.00999928
0.00999928
0.00999928
0.00999928
0.00999928
0.00999928
0.00999928
0.00999928
0.00999928
0.00999928
0.00999928
0.00999928
0.00999928
0.00999928
0.00999928
0.00999928
0.00999928
0.00999928
0.00999928
0.00999928
0.00999928
0.00999928
0.00999928
0.00999928
0.00999928
0.00999928
0.00999928
0.00999928
0.00999928
0.00999928
0.00999928
0.00999928
0.00999928
0.00999928
0.00999928
0.00999928
0.00999928
0.00999928
0.00999928
0.00999928
0.00999928
0.00999928
0.00999928
0.00999928
0.00999928
0.00999928
0.00999928
0.00999928
0.00999928
0.00999928
0.00999928
0.00999928
0.00999928
0.00999928
0.0099992831
0.010370121
0.011005871
0.0092477149
0.010241715
0.0098982206
0.0099757365
0.0099682001
0.0099618353
0.0099576641
0.0099562906
0.0099620088
0.009973142
0.0099863508
0.0099955687
0.0099987807
0.0099993154
0.0099993033
0.0099992955
0.0099992831
0.0099992802
0.00999928
0.00999928
0.00999928
0.00999928
0.00999928
0.00999928
0.00999928
0.00999928
0.00999928
0.00999928
0.00999928
0.00999928
0.00999928
0.00999928
0.00999928
0.00999928
0.00999928
0.00999928
0.00999928
0.00999928
0.00999928
0.00999928
0.00999928
0.00999928
0.00999928
0.00999928
0.00999928
0.00999928
0.00999928
0.00999928
0.00999928
0.00999928
0.00999928
0.00999928
0.00999928
0.00999928
0.00999928
0.00999928
0.00999928
0.00999928
0.00999928
0.00999928
0.00999928
0.00999928
0.00999928
0.00999928
0.00999928
0.00999928
0.00999928
0.00999928
0.00999928
0.00999928
0.00999928
0.00999928
0.00999928
0.00999928
0.00999928
0.00999928
0.00999928
0.0099992834
0.010283438
0.011172034
0.009121255
0.010286482
0.0098825625
0.009971411
0.0099652263
0.0099569548
0.0099536042
0.0099506556
0.0099575011
0.0099692223
0.0099840881
0.0099947137
0.0099985884
0.0099993204
0.0099993051
0.0099992979
0.0099992837
0.0099992802
0.0099992799
0.00999928
0.00999928
0.00999928
0.00999928
0.00999928
0.00999928
0.00999928
0.00999928
0.00999928
0.00999928
0.00999928
0.00999928
0.00999928
0.00999928
0.00999928
0.00999928
0.00999928
0.00999928
0.00999928
0.00999928
0.00999928
0.00999928
0.00999928
0.00999928
0.00999928
0.00999928
0.00999928
0.00999928
0.00999928
0.00999928
0.00999928
0.00999928
0.00999928
0.00999928
0.00999928
0.00999928
0.00999928
0.00999928
0.00999928
0.00999928
0.00999928
0.00999928
0.00999928
0.00999928
0.00999928
0.00999928
0.00999928
0.00999928
0.00999928
0.00999928
0.00999928
0.00999928
0.00999928
0.00999928
0.00999928
0.00999928
0.00999928
0.00999928
0.0099992838
0.01018036
0.011363056
0.0089800064
0.010333609
0.0098667102
0.0099647476
0.0099625029
0.0099515128
0.0099491278
0.0099442377
0.0099524316
0.0099648208
0.0099815644
0.0099937551
0.0099983619
0.0099993265
0.0099993072
0.0099993004
0.0099992845
0.0099992803
0.0099992799
0.00999928
0.00999928
0.00999928
0.00999928
0.00999928
0.00999928
0.00999928
0.00999928
0.00999928
0.00999928
0.00999928
0.00999928
0.00999928
0.00999928
0.00999928
0.00999928
0.00999928
0.00999928
0.00999928
0.00999928
0.00999928
0.00999928
0.00999928
0.00999928
0.00999928
0.00999928
0.00999928
0.00999928
0.00999928
0.00999928
0.00999928
0.00999928
0.00999928
0.00999928
0.00999928
0.00999928
0.00999928
0.00999928
0.00999928
0.00999928
0.00999928
0.00999928
0.00999928
0.00999928
0.00999928
0.00999928
0.00999928
0.00999928
0.00999928
0.00999928
0.00999928
0.00999928
0.00999928
0.00999928
0.00999928
0.00999928
0.00999928
0.00999928
0.0099992841
0.010060657
0.01160491
0.0087843354
0.010399062
0.0098524583
0.009956825
0.0099610312
0.0099452054
0.009944253
0.0099374114
0.0099469108
0.0099601123
0.0099788739
0.0099927297
0.0099981122
0.0099993342
0.0099993098
0.0099993031
0.0099992853
0.0099992804
0.0099992799
0.00999928
0.00999928
0.00999928
0.00999928
0.00999928
0.00999928
0.00999928
0.00999928
0.00999928
0.00999928
0.00999928
0.00999928
0.00999928
0.00999928
0.00999928
0.00999928
0.00999928
0.00999928
0.00999928
0.00999928
0.00999928
0.00999928
0.00999928
0.00999928
0.00999928
0.00999928
0.00999928
0.00999928
0.00999928
0.00999928
0.00999928
0.00999928
0.00999928
0.00999928
0.00999928
0.00999928
0.00999928
0.00999928
0.00999928
0.00999928
0.00999928
0.00999928
0.00999928
0.00999928
0.00999928
0.00999928
0.00999928
0.00999928
0.00999928
0.00999928
0.00999928
0.00999928
0.00999928
0.00999928
0.00999928
0.00999928
0.00999928
0.00999928
0.0099992845
0.009964287
0.011877235
0.0085646381
0.01048557
0.0098277032
0.0099445383
0.0099625691
0.009936923
0.0099388386
0.0099310469
0.0099414138
0.0099555583
0.0099762462
0.0099917361
0.0099978659
0.0099993425
0.0099993129
0.0099993057
0.009999286
0.0099992804
0.0099992799
0.00999928
0.00999928
0.00999928
0.00999928
0.00999928
0.00999928
0.00999928
0.00999928
0.00999928
0.00999928
0.00999928
0.00999928
0.00999928
0.00999928
0.00999928
0.00999928
0.00999928
0.00999928
0.00999928
0.00999928
0.00999928
0.00999928
0.00999928
0.00999928
0.00999928
0.00999928
0.00999928
0.00999928
0.00999928
0.00999928
0.00999928
0.00999928
0.00999928
0.00999928
0.00999928
0.00999928
0.00999928
0.00999928
0.00999928
0.00999928
0.00999928
0.00999928
0.00999928
0.00999928
0.00999928
0.00999928
0.00999928
0.00999928
0.00999928
0.00999928
0.00999928
0.00999928
0.00999928
0.00999928
0.00999928
0.00999928
0.00999928
0.00999928
0.0099992849
0.0098576536
0.012127086
0.0083684334
0.0105629
0.0097986499
0.0099356783
0.0099612761
0.0099296028
0.009933857
0.0099257141
0.0099364882
0.0099515624
0.0099740188
0.0099909354
0.0099976741
0.0099993489
0.0099993162
0.0099993079
0.0099992865
0.0099992804
0.0099992799
0.00999928
0.00999928
0.00999928
0.00999928
0.00999928
0.00999928
0.00999928
0.00999928
0.00999928
0.00999928
0.00999928
0.00999928
0.00999928
0.00999928
0.00999928
0.00999928
0.00999928
0.00999928
0.00999928
0.00999928
0.00999928
0.00999928
0.00999928
0.00999928
0.00999928
0.00999928
0.00999928
0.00999928
0.00999928
0.00999928
0.00999928
0.00999928
0.00999928
0.00999928
0.00999928
0.00999928
0.00999928
0.00999928
0.00999928
0.00999928
0.00999928
0.00999928
0.00999928
0.00999928
0.00999928
0.00999928
0.00999928
0.00999928
0.00999928
0.00999928
0.00999928
0.00999928
0.00999928
0.00999928
0.00999928
0.00999928
0.00999928
0.00999928
0.0099992853
0.0097554501
0.01232108
0.0081937171
0.010636551
0.0097664771
0.0099345044
0.0099576864
0.0099230529
0.0099295373
0.009922471
0.0099312794
0.0099485737
0.0099725856
0.0099905172
0.0099975964
0.0099993594
0.0099993194
0.0099993094
0.0099992866
0.0099992804
0.0099992799
0.00999928
0.00999928
0.00999928
0.00999928
0.00999928
0.00999928
0.00999928
0.00999928
0.00999928
0.00999928
0.00999928
0.00999928
0.00999928
0.00999928
0.00999928
0.00999928
0.00999928
0.00999928
0.00999928
0.00999928
0.00999928
0.00999928
0.00999928
0.00999928
0.00999928
0.00999928
0.00999928
0.00999928
0.00999928
0.00999928
0.00999928
0.00999928
0.00999928
0.00999928
0.00999928
0.00999928
0.00999928
0.00999928
0.00999928
0.00999928
0.00999928
0.00999928
0.00999928
0.00999928
0.00999928
0.00999928
0.00999928
0.00999928
0.00999928
0.00999928
0.00999928
0.00999928
0.00999928
0.00999928
0.00999928
0.00999928
0.00999928
0.00999928
0.0099992857
0.0097284832
0.012432067
0.0080456825
0.010716245
0.0097283882
0.0099415351
0.009951619
0.0099180928
0.009926143
0.0099227072
0.0099257325
0.0099471343
0.0099722989
0.0099906272
0.0099976755
0.0099993756
0.0099993223
0.0099993096
0.0099992863
0.0099992804
0.0099992799
0.00999928
0.00999928
0.00999928
0.00999928
0.00999928
0.00999928
0.00999928
0.00999928
0.00999928
0.00999928
0.00999928
0.00999928
0.00999928
0.00999928
0.00999928
0.00999928
0.00999928
0.00999928
0.00999928
0.00999928
0.00999928
0.00999928
0.00999928
0.00999928
0.00999928
0.00999928
0.00999928
0.00999928
0.00999928
0.00999928
0.00999928
0.00999928
0.00999928
0.00999928
0.00999928
0.00999928
0.00999928
0.00999928
0.00999928
0.00999928
0.00999928
0.00999928
0.00999928
0.00999928
0.00999928
0.00999928
0.00999928
0.00999928
0.00999928
0.00999928
0.00999928
0.00999928
0.00999928
0.00999928
0.00999928
0.00999928
0.00999928
0.00999928
0.0099992861
0.0096258137
0.012558748
0.0079064954
0.010777503
0.0097060923
0.0099560987
0.0099394496
0.0099241104
0.0099190897
0.0099252331
0.0099213318
0.0099475503
0.009973306
0.0099912946
0.0099979043
0.0099993906
0.0099993247
0.0099993086
0.0099992854
0.0099992802
0.0099992799
0.00999928
0.00999928
0.00999928
0.00999928
0.00999928
0.00999928
0.00999928
0.00999928
0.00999928
0.00999928
0.00999928
0.00999928
0.00999928
0.00999928
0.00999928
0.00999928
0.00999928
0.00999928
0.00999928
0.00999928
0.00999928
0.00999928
0.00999928
0.00999928
0.00999928
0.00999928
0.00999928
0.00999928
0.00999928
0.00999928
0.00999928
0.00999928
0.00999928
0.00999928
0.00999928
0.00999928
0.00999928
0.00999928
0.00999928
0.00999928
0.00999928
0.00999928
0.00999928
0.00999928
0.00999928
0.00999928
0.00999928
0.00999928
0.00999928
0.00999928
0.00999928
0.00999928
0.00999928
0.00999928
0.00999928
0.00999928
0.00999928
0.00999928
0.0099992865
0.0093345067
0.012776009
0.007813015
0.010750231
0.0097347797
0.0099674373
0.009928657
0.0099438947
0.0099160145
0.0099191154
0.0099210342
0.0099497345
0.0099753843
0.0099923673
0.0099982223
0.0099993935
0.009999326
0.0099993064
0.0099992842
0.0099992801
0.0099992799
0.00999928
0.00999928
0.00999928
0.00999928
0.00999928
0.00999928
0.00999928
0.00999928
0.00999928
0.00999928
0.00999928
0.00999928
0.00999928
0.00999928
0.00999928
0.00999928
0.00999928
0.00999928
0.00999928
0.00999928
0.00999928
0.00999928
0.00999928
0.00999928
0.00999928
0.00999928
0.00999928
0.00999928
0.00999928
0.00999928
0.00999928
0.00999928
0.00999928
0.00999928
0.00999928
0.00999928
0.00999928
0.00999928
0.00999928
0.00999928
0.00999928
0.00999928
0.00999928
0.00999928
0.00999928
0.00999928
0.00999928
0.00999928
0.00999928
0.00999928
0.00999928
0.00999928
0.00999928
0.00999928
0.00999928
0.00999928
0.00999928
0.00999928
0.0099992869
0.009110702
0.012894125
0.0078617149
0.010647113
0.009795107
0.0099828079
0.0099272577
0.0099478202
0.0099208597
0.009913227
0.0099224958
0.009952978
0.0099779061
0.0099935214
0.0099985296
0.009999389
0.0099993253
0.0099993035
0.0099992832
0.00999928
0.0099992799
0.00999928
0.00999928
0.00999928
0.00999928
0.00999928
0.00999928
0.00999928
0.00999928
0.00999928
0.00999928
0.00999928
0.00999928
0.00999928
0.00999928
0.00999928
0.00999928
0.00999928
0.00999928
0.00999928
0.00999928
0.00999928
0.00999928
0.00999928
0.00999928
0.00999928
0.00999928
0.00999928
0.00999928
0.00999928
0.00999928
0.00999928
0.00999928
0.00999928
0.00999928
0.00999928
0.00999928
0.00999928
0.00999928
0.00999928
0.00999928
0.00999928
0.00999928
0.00999928
0.00999928
0.00999928
0.00999928
0.00999928
0.00999928
0.00999928
0.00999928
0.00999928
0.00999928
0.00999928
0.00999928
0.00999928
0.00999928
0.00999928
0.0099992801
0.0099992872
0.0091170743
0.012644431
0.0080684687
0.010558577
0.0098242826
0.01000496
0.0099467818
0.0099339596
0.00992178
0.00991301
0.0099245122
0.0099560546
0.0099799919
0.0099943997
0.0099987382
0.009999382
0.0099993237
0.0099993007
0.0099992824
0.00999928
0.0099992799
0.00999928
0.00999928
0.00999928
0.00999928
0.00999928
0.00999928
0.00999928
0.00999928
0.00999928
0.00999928
0.00999928
0.00999928
0.00999928
0.00999928
0.00999928
0.00999928
0.00999928
0.00999928
0.00999928
0.00999928
0.00999928
0.00999928
0.00999928
0.00999928
0.00999928
0.00999928
0.00999928
0.00999928
0.00999928
0.00999928
0.00999928
0.00999928
0.00999928
0.00999928
0.00999928
0.00999928
0.00999928
0.00999928
0.00999928
0.00999928
0.00999928
0.00999928
0.00999928
0.00999928
0.00999928
0.00999928
0.00999928
0.00999928
0.00999928
0.00999928
0.00999928
0.00999928
0.00999928
0.00999928
0.00999928
0.00999928
0.00999928
0.0099992801
0.0099992874
0.009161376
0.012209894
0.008395971
0.010478887
0.0098614636
0.010000313
0.0099543588
0.0099302792
0.0099209971
0.0099144859
0.0099257322
0.0099576063
0.0099808534
0.0099947194
0.0099988045
0.0099993787
0.009999323
0.0099992997
0.0099992822
0.0099992799
0.0099992799
0.00999928
0.00999928
0.00999928
0.00999928
0.00999928
0.00999928
0.00999928
0.00999928
0.00999928
0.00999928
0.00999928
0.00999928
0.00999928
0.00999928
0.00999928
0.00999928
0.00999928
0.00999928
0.00999928
0.00999928
0.00999928
0.00999928
0.00999928
0.00999928
0.00999928
0.00999928
0.00999928
0.00999928
0.00999928
0.00999928
0.00999928
0.00999928
0.00999928
0.00999928
0.00999928
0.00999928
0.00999928
0.00999928
0.00999928
0.00999928
0.00999928
0.00999928
0.00999928
0.00999928
0.00999928
0.00999928
0.00999928
0.00999928
0.00999928
0.00999928
0.00999928
0.00999928
0.00999928
0.00999928
0.00999928
0.00999928
0.00999928
0.0099992801
0.0099992875
0.0092024319
0.012067797
0.0085640656
0.010430843
0.0098847381
0.0099877372
0.009957508
0.0099299729
0.0099210119
0.0099156946
0.0099248868
0.0099562837
0.0099796735
0.0099941132
0.0099986504
0.0099993793
0.0099993226
0.0099993017
0.009999283
0.00999928
0.0099992799
0.00999928
0.00999928
0.00999928
0.00999928
0.00999928
0.00999928
0.00999928
0.00999928
0.00999928
0.00999928
0.00999928
0.00999928
0.00999928
0.00999928
0.00999928
0.00999928
0.00999928
0.00999928
0.00999928
0.00999928
0.00999928
0.00999928
0.00999928
0.00999928
0.00999928
0.00999928
0.00999928
0.00999928
0.00999928
0.00999928
0.00999928
0.00999928
0.00999928
0.00999928
0.00999928
0.00999928
0.00999928
0.00999928
0.00999928
0.00999928
0.00999928
0.00999928
0.00999928
0.00999928
0.00999928
0.00999928
0.00999928
0.00999928
0.00999928
0.00999928
0.00999928
0.00999928
0.00999928
0.00999928
0.00999928
0.00999928
0.00999928
0.0099992801
0.0099992875
0.011067556
0.0095029495
0.010244996
0.0099795106
0.010027875
0.010027072
0.01002629
0.010030174
0.010026857
0.010020333
0.0100118
0.01000452
0.010000893
0.0099994939
0.0099992692
0.0099992696
0.009999278
0.0099992799
0.0099992801
0.00999928
0.00999928
0.00999928
0.00999928
0.00999928
0.00999928
0.00999928
0.00999928
0.00999928
0.00999928
0.00999928
0.00999928
0.00999928
0.00999928
0.00999928
0.00999928
0.00999928
0.00999928
0.00999928
0.00999928
0.00999928
0.00999928
0.00999928
0.00999928
0.00999928
0.00999928
0.00999928
0.00999928
0.00999928
0.00999928
0.00999928
0.00999928
0.00999928
0.00999928
0.00999928
0.00999928
0.00999928
0.00999928
0.00999928
0.00999928
0.00999928
0.00999928
0.00999928
0.00999928
0.00999928
0.00999928
0.00999928
0.00999928
0.00999928
0.00999928
0.00999928
0.00999928
0.00999928
0.00999928
0.00999928
0.00999928
0.00999928
0.00999928
0.00999928
0.00999928
0.00999928
0.011069171
0.0095185235
0.010253791
0.0099653831
0.010025228
0.010026426
0.010026785
0.010029801
0.010028543
0.010020373
0.010012495
0.010005119
0.010001233
0.0099995894
0.009999273
0.009999268
0.0099992772
0.0099992797
0.0099992801
0.00999928
0.00999928
0.00999928
0.00999928
0.00999928
0.00999928
0.00999928
0.00999928
0.00999928
0.00999928
0.00999928
0.00999928
0.00999928
0.00999928
0.00999928
0.00999928
0.00999928
0.00999928
0.00999928
0.00999928
0.00999928
0.00999928
0.00999928
0.00999928
0.00999928
0.00999928
0.00999928
0.00999928
0.00999928
0.00999928
0.00999928
0.00999928
0.00999928
0.00999928
0.00999928
0.00999928
0.00999928
0.00999928
0.00999928
0.00999928
0.00999928
0.00999928