/*--------------------------------*- C++ -*----------------------------------*\
| =========                 |                                                 |
| \\      /  F ield         | OpenFOAM: The Open Source CFD Toolbox           |
|  \\    /   O peration     | Version:  2406                                  |
|   \\  /    A nd           | Website:  www.openfoam.com                      |
|    \\/     M anipulation  |                                                 |
\*---------------------------------------------------------------------------*/
FoamFile
{
    version     2.0;
    format      ascii;
    arch        "LSB;label=32;scalar=64";
    class       volScalarField;
    location    "8e-05";
    object      Ma;
}
// * * * * * * * * * * * * * * * * * * * * * * * * * * * * * * * * * * * * * //

dimensions      [0 0 0 0 0 0 0];

internalField   nonuniform List<scalar> 
16000
(
0.058499812
0.05837799
0.058416008
0.058289623
0.058253629
0.05815588
0.058108946
0.057992418
0.057906011
0.05780247
0.057747617
0.057716257
0.057708202
0.057706141
0.057706037
0.057706044
0.057706068
0.057706071
0.057706072
0.057706072
0.057706072
0.057706072
0.057706072
0.057706072
0.057706072
0.057706072
0.057706072
0.057706072
0.057706072
0.057706072
0.057706072
0.057706072
0.057706072
0.057706072
0.057706072
0.057706072
0.057706072
0.057706072
0.057706072
0.057706072
0.057706072
0.057706072
0.057706072
0.057706072
0.057706072
0.057706072
0.057706072
0.057706072
0.057706072
0.057706072
0.057706072
0.057706072
0.057706072
0.057706072
0.057706072
0.057706072
0.057706072
0.057706072
0.057706072
0.057706072
0.057706072
0.057706072
0.057706072
0.057706072
0.057706072
0.057706072
0.057706072
0.057706072
0.057706072
0.057706072
0.057706072
0.057706072
0.057706072
0.057706072
0.057706072
0.057706072
0.057706072
0.057706072
0.057706072
0.057706072
0.058355938
0.058460744
0.058407807
0.058343582
0.05823778
0.058176353
0.058097251
0.057976684
0.057878924
0.057776448
0.057728875
0.057707933
0.057705445
0.05770551
0.057705986
0.057706063
0.057706078
0.057706073
0.057706072
0.057706072
0.057706072
0.057706072
0.057706072
0.057706072
0.057706072
0.057706072
0.057706072
0.057706072
0.057706072
0.057706072
0.057706072
0.057706072
0.057706072
0.057706072
0.057706072
0.057706072
0.057706072
0.057706072
0.057706072
0.057706072
0.057706072
0.057706072
0.057706072
0.057706072
0.057706072
0.057706072
0.057706072
0.057706072
0.057706072
0.057706072
0.057706072
0.057706072
0.057706072
0.057706072
0.057706072
0.057706072
0.057706072
0.057706072
0.057706072
0.057706072
0.057706072
0.057706072
0.057706072
0.057706072
0.057706072
0.057706072
0.057706072
0.057706072
0.057706072
0.057706072
0.057706072
0.057706072
0.057706072
0.057706072
0.057706072
0.057706072
0.057706072
0.057706072
0.057706072
0.057706072
0.05815122
0.058507469
0.05841986
0.058364012
0.058231349
0.058186174
0.05809208
0.057959991
0.057852666
0.057744415
0.057702117
0.057690479
0.057698149
0.057703348
0.057705672
0.057706067
0.0577061
0.057706079
0.057706073
0.057706071
0.057706072
0.057706072
0.057706072
0.057706072
0.057706072
0.057706072
0.057706072
0.057706072
0.057706072
0.057706072
0.057706072
0.057706072
0.057706072
0.057706072
0.057706072
0.057706072
0.057706072
0.057706072
0.057706072
0.057706072
0.057706072
0.057706072
0.057706072
0.057706072
0.057706072
0.057706072
0.057706072
0.057706072
0.057706072
0.057706072
0.057706072
0.057706072
0.057706072
0.057706072
0.057706072
0.057706072
0.057706072
0.057706072
0.057706072
0.057706072
0.057706072
0.057706072
0.057706072
0.057706072
0.057706072
0.057706072
0.057706072
0.057706072
0.057706072
0.057706072
0.057706072
0.057706072
0.057706072
0.057706072
0.057706072
0.057706072
0.057706072
0.057706072
0.057706072
0.057706072
0.057840725
0.058517714
0.058435573
0.05836122
0.058234392
0.058182785
0.058089625
0.057936116
0.057821212
0.0577021
0.057663561
0.057663919
0.057686764
0.057699863
0.057705143
0.057706063
0.057706132
0.057706089
0.057706074
0.057706071
0.057706071
0.057706072
0.057706072
0.057706072
0.057706072
0.057706072
0.057706072
0.057706072
0.057706072
0.057706072
0.057706072
0.057706072
0.057706072
0.057706072
0.057706072
0.057706072
0.057706072
0.057706072
0.057706072
0.057706072
0.057706072
0.057706072
0.057706072
0.057706072
0.057706072
0.057706072
0.057706072
0.057706072
0.057706072
0.057706072
0.057706072
0.057706072
0.057706072
0.057706072
0.057706072
0.057706072
0.057706072
0.057706072
0.057706072
0.057706072
0.057706072
0.057706072
0.057706072
0.057706072
0.057706072
0.057706072
0.057706072
0.057706072
0.057706072
0.057706072
0.057706072
0.057706072
0.057706072
0.057706072
0.057706072
0.057706072
0.057706072
0.057706072
0.057706072
0.057706072
0.057418489
0.058540825
0.0584437
0.058362832
0.058235506
0.058170793
0.058084765
0.057910931
0.057786361
0.057652051
0.057614232
0.057628199
0.05767044
0.057694611
0.057704253
0.05770603
0.057706173
0.057706103
0.057706076
0.057706071
0.057706071
0.057706072
0.057706072
0.057706072
0.057706072
0.057706072
0.057706072
0.057706072
0.057706072
0.057706072
0.057706072
0.057706072
0.057706072
0.057706072
0.057706072
0.057706072
0.057706072
0.057706072
0.057706072
0.057706072
0.057706072
0.057706072
0.057706072
0.057706072
0.057706072
0.057706072
0.057706072
0.057706072
0.057706072
0.057706072
0.057706072
0.057706072
0.057706072
0.057706072
0.057706072
0.057706072
0.057706072
0.057706072
0.057706072
0.057706072
0.057706072
0.057706072
0.057706072
0.057706072
0.057706072
0.057706072
0.057706072
0.057706072
0.057706072
0.057706072
0.057706072
0.057706072
0.057706072
0.057706072
0.057706072
0.057706072
0.057706072
0.057706072
0.057706072
0.057706072
0.05693947
0.05858517
0.058447924
0.058371453
0.05823177
0.058155576
0.05807136
0.0578896
0.057745536
0.05759304
0.057552669
0.057581294
0.05764776
0.057686881
0.057702813
0.057705938
0.057706225
0.057706123
0.057706079
0.057706071
0.057706071
0.057706072
0.057706072
0.057706072
0.057706072
0.057706072
0.057706072
0.057706072
0.057706072
0.057706072
0.057706072
0.057706072
0.057706072
0.057706072
0.057706072
0.057706072
0.057706072
0.057706072
0.057706072
0.057706072
0.057706072
0.057706072
0.057706072
0.057706072
0.057706072
0.057706072
0.057706072
0.057706072
0.057706072
0.057706072
0.057706072
0.057706072
0.057706072
0.057706072
0.057706072
0.057706072
0.057706072
0.057706072
0.057706072
0.057706072
0.057706072
0.057706072
0.057706072
0.057706072
0.057706072
0.057706072
0.057706072
0.057706072
0.057706072
0.057706072
0.057706072
0.057706072
0.057706072
0.057706072
0.057706072
0.057706072
0.057706072
0.057706072
0.057706072
0.057706072
0.056423369
0.058645062
0.058448214
0.058384394
0.058219819
0.058142093
0.058051206
0.05786504
0.057692711
0.05752582
0.057478055
0.05752137
0.057617242
0.057675943
0.057700617
0.057705752
0.057706289
0.057706152
0.057706085
0.057706071
0.057706071
0.057706072
0.057706072
0.057706072
0.057706072
0.057706072
0.057706072
0.057706072
0.057706072
0.057706072
0.057706072
0.057706072
0.057706072
0.057706072
0.057706072
0.057706072
0.057706072
0.057706072
0.057706072
0.057706072
0.057706072
0.057706072
0.057706072
0.057706072
0.057706072
0.057706072
0.057706072
0.057706072
0.057706072
0.057706072
0.057706072
0.057706072
0.057706072
0.057706072
0.057706072
0.057706072
0.057706072
0.057706072
0.057706072
0.057706072
0.057706072
0.057706072
0.057706072
0.057706072
0.057706072
0.057706072
0.057706072
0.057706072
0.057706072
0.057706072
0.057706072
0.057706072
0.057706072
0.057706072
0.057706072
0.057706072
0.057706072
0.057706072
0.057706072
0.057706072
0.055886298
0.058718479
0.058440689
0.058400066
0.058202231
0.058126146
0.058027485
0.057828952
0.057636699
0.057446873
0.057388722
0.057446643
0.057577372
0.057661003
0.057697422
0.057705428
0.057706364
0.057706189
0.057706093
0.057706072
0.057706071
0.057706071
0.057706072
0.057706072
0.057706072
0.057706072
0.057706072
0.057706072
0.057706072
0.057706072
0.057706072
0.057706072
0.057706072
0.057706072
0.057706072
0.057706072
0.057706072
0.057706072
0.057706072
0.057706072
0.057706072
0.057706072
0.057706072
0.057706072
0.057706072
0.057706072
0.057706072
0.057706072
0.057706072
0.057706072
0.057706072
0.057706072
0.057706072
0.057706072
0.057706072
0.057706072
0.057706072
0.057706072
0.057706072
0.057706072
0.057706072
0.057706072
0.057706072
0.057706072
0.057706072
0.057706072
0.057706072
0.057706072
0.057706072
0.057706072
0.057706072
0.057706072
0.057706072
0.057706072
0.057706072
0.057706072
0.057706072
0.057706072
0.057706072
0.057706072
0.055363014
0.058808021
0.058424693
0.058422921
0.058181868
0.058107828
0.058001408
0.057779047
0.057577339
0.057356154
0.057283381
0.057355185
0.057526461
0.05764113
0.057692933
0.057704908
0.057706449
0.057706239
0.057706105
0.057706072
0.057706071
0.057706071
0.057706072
0.057706072
0.057706072
0.057706072
0.057706072
0.057706072
0.057706072
0.057706072
0.057706072
0.057706072
0.057706072
0.057706072
0.057706072
0.057706072
0.057706072
0.057706072
0.057706072
0.057706072
0.057706072
0.057706072
0.057706072
0.057706072
0.057706072
0.057706072
0.057706072
0.057706072
0.057706072
0.057706072
0.057706072
0.057706072
0.057706072
0.057706072
0.057706072
0.057706072
0.057706072
0.057706072
0.057706072
0.057706072
0.057706072
0.057706072
0.057706072
0.057706072
0.057706072
0.057706072
0.057706072
0.057706072
0.057706072
0.057706072
0.057706072
0.057706072
0.057706072
0.057706072
0.057706072
0.057706072
0.057706072
0.057706072
0.057706072
0.057706072
0.054888533
0.058919148
0.058398241
0.058454421
0.058157437
0.058088463
0.057967947
0.057727306
0.05750685
0.05725143
0.057160148
0.057244587
0.057462464
0.057615197
0.057686786
0.057704117
0.05770654
0.057706301
0.057706121
0.057706073
0.057706071
0.057706071
0.057706072
0.057706072
0.057706072
0.057706072
0.057706072
0.057706072
0.057706072
0.057706072
0.057706072
0.057706072
0.057706072
0.057706072
0.057706072
0.057706072
0.057706072
0.057706072
0.057706072
0.057706072
0.057706072
0.057706072
0.057706072
0.057706072
0.057706072
0.057706072
0.057706072
0.057706072
0.057706072
0.057706072
0.057706072
0.057706072
0.057706072
0.057706072
0.057706072
0.057706072
0.057706072
0.057706072
0.057706072
0.057706072
0.057706072
0.057706072
0.057706072
0.057706072
0.057706072
0.057706072
0.057706072
0.057706072
0.057706072
0.057706072
0.057706072
0.057706072
0.057706072
0.057706072
0.057706072
0.057706072
0.057706072
0.057706072
0.057706072
0.057706072
0.05452431
0.05906463
0.058359758
0.058499725
0.058130201
0.0580697
0.057927339
0.057673996
0.057423316
0.057131428
0.057016835
0.057111806
0.057382841
0.057581807
0.057678529
0.057702962
0.057706634
0.05770638
0.057706142
0.057706074
0.05770607
0.057706071
0.057706072
0.057706072
0.057706072
0.057706072
0.057706072
0.057706072
0.057706072
0.057706072
0.057706072
0.057706072
0.057706072
0.057706072
0.057706072
0.057706072
0.057706072
0.057706072
0.057706072
0.057706072
0.057706072
0.057706072
0.057706072
0.057706072
0.057706072
0.057706072
0.057706072
0.057706072
0.057706072
0.057706072
0.057706072
0.057706072
0.057706072
0.057706072
0.057706072
0.057706072
0.057706072
0.057706072
0.057706072
0.057706072
0.057706072
0.057706072
0.057706072
0.057706072
0.057706072
0.057706072
0.057706072
0.057706072
0.057706072
0.057706072
0.057706072
0.057706072
0.057706072
0.057706072
0.057706072
0.057706072
0.057706072
0.057706072
0.057706072
0.057706072
0.054352512
0.059242551
0.058320711
0.058550553
0.058104101
0.058046501
0.057877189
0.057614395
0.057329012
0.056993735
0.056850993
0.056952904
0.057284309
0.057539166
0.057667574
0.057701319
0.057706724
0.057706478
0.057706171
0.057706077
0.05770607
0.057706071
0.057706072
0.057706072
0.057706072
0.057706072
0.057706072
0.057706072
0.057706072
0.057706072
0.057706072
0.057706072
0.057706072
0.057706072
0.057706072
0.057706072
0.057706072
0.057706072
0.057706072
0.057706072
0.057706072
0.057706072
0.057706072
0.057706072
0.057706072
0.057706072
0.057706072
0.057706072
0.057706072
0.057706072
0.057706072
0.057706072
0.057706072
0.057706072
0.057706072
0.057706072
0.057706072
0.057706072
0.057706072
0.057706072
0.057706072
0.057706072
0.057706072
0.057706072
0.057706072
0.057706072
0.057706072
0.057706072
0.057706072
0.057706072
0.057706072
0.057706072
0.057706072
0.057706072
0.057706072
0.057706072
0.057706072
0.057706072
0.057706072
0.057706072
0.054369141
0.059439627
0.058289163
0.058599676
0.058083574
0.05801492
0.057815942
0.057545896
0.057221332
0.056835775
0.056657805
0.056762781
0.057162648
0.057484976
0.05765316
0.057699026
0.057706801
0.057706599
0.057706209
0.05770608
0.05770607
0.057706071
0.057706072
0.057706072
0.057706072
0.057706072
0.057706072
0.057706072
0.057706072
0.057706072
0.057706072
0.057706072
0.057706072
0.057706072
0.057706072
0.057706072
0.057706072
0.057706072
0.057706072
0.057706072
0.057706072
0.057706072
0.057706072
0.057706072
0.057706072
0.057706072
0.057706072
0.057706072
0.057706072
0.057706072
0.057706072
0.057706072
0.057706072
0.057706072
0.057706072
0.057706072
0.057706072
0.057706072
0.057706072
0.057706072
0.057706072
0.057706072
0.057706072
0.057706072
0.057706072
0.057706072
0.057706072
0.057706072
0.057706072
0.057706072
0.057706072
0.057706072
0.057706072
0.057706072
0.057706072
0.057706072
0.057706072
0.057706072
0.057706072
0.057706072
0.054558626
0.059684335
0.05825011
0.058670168
0.058066957
0.057980424
0.057741622
0.057465096
0.057094755
0.056652009
0.056431194
0.056534482
0.057012281
0.057416181
0.057634272
0.057695865
0.05770685
0.057706748
0.057706259
0.057706085
0.057706069
0.057706071
0.057706071
0.057706072
0.057706072
0.057706072
0.057706072
0.057706072
0.057706072
0.057706072
0.057706072
0.057706072
0.057706072
0.057706072
0.057706072
0.057706072
0.057706072
0.057706072
0.057706072
0.057706072
0.057706072
0.057706072
0.057706072
0.057706072
0.057706072
0.057706072
0.057706072
0.057706072
0.057706072
0.057706072
0.057706072
0.057706072
0.057706072
0.057706072
0.057706072
0.057706072
0.057706072
0.057706072
0.057706072
0.057706072
0.057706072
0.057706072
0.057706072
0.057706072
0.057706072
0.057706072
0.057706072
0.057706072
0.057706072
0.057706072
0.057706072
0.057706072
0.057706072
0.057706072
0.057706072
0.057706072
0.057706072
0.057706072
0.057706072
0.057706072
0.055006269
0.059997754
0.058187786
0.058776924
0.05805093
0.057946481
0.057650253
0.057368469
0.056942845
0.056435051
0.056163067
0.056258755
0.056825816
0.057328729
0.057609562
0.057691544
0.057706851
0.057706931
0.057706323
0.057706092
0.057706069
0.05770607
0.057706071
0.057706072
0.057706072
0.057706072
0.057706072
0.057706072
0.057706072
0.057706072
0.057706072
0.057706072
0.057706072
0.057706072
0.057706072
0.057706072
0.057706072
0.057706072
0.057706072
0.057706072
0.057706072
0.057706072
0.057706072
0.057706072
0.057706072
0.057706072
0.057706072
0.057706072
0.057706072
0.057706072
0.057706072
0.057706072
0.057706072
0.057706072
0.057706072
0.057706072
0.057706072
0.057706072
0.057706072
0.057706072
0.057706072
0.057706072
0.057706072
0.057706072
0.057706072
0.057706072
0.057706072
0.057706072
0.057706072
0.057706072
0.057706072
0.057706072
0.057706072
0.057706072
0.057706072
0.057706072
0.057706072
0.057706072
0.057706072
0.057706072
0.055826291
0.060405973
0.058140746
0.058926679
0.058045506
0.057915724
0.057542568
0.057260253
0.056764051
0.056179775
0.055843572
0.055923621
0.05659351
0.057217297
0.057577246
0.057685674
0.057706776
0.057707158
0.057706406
0.057706102
0.057706069
0.05770607
0.057706071
0.057706072
0.057706072
0.057706072
0.057706072
0.057706072
0.057706072
0.057706072
0.057706072
0.057706072
0.057706072
0.057706072
0.057706072
0.057706072
0.057706072
0.057706072
0.057706072
0.057706072
0.057706072
0.057706072
0.057706072
0.057706072
0.057706072
0.057706072
0.057706072
0.057706072
0.057706072
0.057706072
0.057706072
0.057706072
0.057706072
0.057706072
0.057706072
0.057706072
0.057706072
0.057706072
0.057706072
0.057706072
0.057706072
0.057706072
0.057706072
0.057706072
0.057706072
0.057706072
0.057706072
0.057706072
0.057706072
0.057706072
0.057706072
0.057706072
0.057706072
0.057706072
0.057706072
0.057706072
0.057706072
0.057706072
0.057706072
0.057706072
0.056931915
0.060873158
0.058071077
0.059098928
0.058063591
0.057896359
0.057437912
0.057156994
0.056569946
0.055887126
0.055461921
0.055513373
0.056302479
0.057075011
0.057535056
0.057677765
0.057706587
0.057707438
0.057706514
0.057706115
0.057706068
0.057706069
0.057706071
0.057706072
0.057706072
0.057706072
0.057706072
0.057706072
0.057706072
0.057706072
0.057706072
0.057706072
0.057706072
0.057706072
0.057706072
0.057706072
0.057706072
0.057706072
0.057706072
0.057706072
0.057706072
0.057706072
0.057706072
0.057706072
0.057706072
0.057706072
0.057706072
0.057706072
0.057706072
0.057706072
0.057706072
0.057706072
0.057706072
0.057706072
0.057706072
0.057706072
0.057706072
0.057706072
0.057706072
0.057706072
0.057706072
0.057706072
0.057706072
0.057706072
0.057706072
0.057706072
0.057706072
0.057706072
0.057706072
0.057706072
0.057706072
0.057706072
0.057706072
0.057706072
0.057706072
0.057706072
0.057706072
0.057706072
0.057706072
0.057706072
0.058437693
0.06156491
0.05811369
0.059420595
0.058163707
0.057892876
0.057345788
0.057066142
0.056361317
0.055550948
0.054997086
0.055003802
0.055934563
0.056893087
0.05748029
0.057667275
0.057706249
0.057707784
0.05770665
0.057706133
0.057706068
0.057706069
0.057706071
0.057706072
0.057706072
0.057706072
0.057706072
0.057706072
0.057706072
0.057706072
0.057706072
0.057706072
0.057706072
0.057706072
0.057706072
0.057706072
0.057706072
0.057706072
0.057706072
0.057706072
0.057706072
0.057706072
0.057706072
0.057706072
0.057706072
0.057706072
0.057706072
0.057706072
0.057706072
0.057706072
0.057706072
0.057706072
0.057706072
0.057706072
0.057706072
0.057706072
0.057706072
0.057706072
0.057706072
0.057706072
0.057706072
0.057706072
0.057706072
0.057706072
0.057706072
0.057706072
0.057706072
0.057706072
0.057706072
0.057706072
0.057706072
0.057706072
0.057706072
0.057706072
0.057706072
0.057706072
0.057706072
0.057706072
0.057706072
0.057706072
0.060452671
0.062388833
0.058036038
0.059677958
0.058198159
0.057877945
0.057235025
0.056956818
0.056086093
0.055105203
0.054397466
0.05435261
0.055464322
0.056660958
0.057410111
0.057653733
0.057705752
0.057708214
0.057706822
0.057706156
0.057706068
0.057706068
0.057706071
0.057706072
0.057706072
0.057706072
0.057706072
0.057706072
0.057706072
0.057706072
0.057706072
0.057706072
0.057706072
0.057706072
0.057706072
0.057706072
0.057706072
0.057706072
0.057706072
0.057706072
0.057706072
0.057706072
0.057706072
0.057706072
0.057706072
0.057706072
0.057706072
0.057706072
0.057706072
0.057706072
0.057706072
0.057706072
0.057706072
0.057706072
0.057706072
0.057706072
0.057706072
0.057706072
0.057706072
0.057706072
0.057706072
0.057706072
0.057706072
0.057706072
0.057706072
0.057706072
0.057706072
0.057706072
0.057706072
0.057706072
0.057706072
0.057706072
0.057706072
0.057706072
0.057706072
0.057706072
0.057706072
0.057706072
0.057706072
0.057706072
0.062943466
0.063530041
0.057770175
0.060367867
0.058256614
0.05806989
0.057087664
0.0566754
0.055603462
0.054397814
0.053573459
0.053498976
0.054863813
0.056368441
0.057322353
0.057636902
0.057705131
0.057708745
0.057707031
0.057706184
0.057706067
0.057706067
0.057706071
0.057706072
0.057706072
0.057706072
0.057706072
0.057706072
0.057706072
0.057706072
0.057706072
0.057706072
0.057706072
0.057706072
0.057706072
0.057706072
0.057706072
0.057706072
0.057706072
0.057706072
0.057706072
0.057706072
0.057706072
0.057706072
0.057706072
0.057706072
0.057706072
0.057706072
0.057706072
0.057706072
0.057706072
0.057706072
0.057706072
0.057706072
0.057706072
0.057706072
0.057706072
0.057706072
0.057706072
0.057706072
0.057706072
0.057706072
0.057706072
0.057706072
0.057706072
0.057706072
0.057706072
0.057706072
0.057706072
0.057706072
0.057706072
0.057706072
0.057706072
0.057706072
0.057706072
0.057706072
0.057706072
0.057706072
0.057706072
0.057706072
0.066953142
0.064689682
0.057915687
0.061101228
0.058469316
0.057857139
0.056587222
0.055991074
0.054746127
0.053319524
0.052423575
0.052383613
0.054113134
0.056011737
0.057217628
0.057617202
0.057704495
0.057709384
0.057707271
0.057706214
0.057706067
0.057706066
0.057706071
0.057706072
0.057706072
0.057706072
0.057706072
0.057706072
0.057706072
0.057706072
0.057706072
0.057706072
0.057706072
0.057706072
0.057706072
0.057706072
0.057706072
0.057706072
0.057706072
0.057706072
0.057706072
0.057706072
0.057706072
0.057706072
0.057706072
0.057706072
0.057706072
0.057706072
0.057706072
0.057706072
0.057706072
0.057706072
0.057706072
0.057706072
0.057706072
0.057706072
0.057706072
0.057706072
0.057706072
0.057706072
0.057706072
0.057706072
0.057706072
0.057706072
0.057706072
0.057706072
0.057706072
0.057706072
0.057706072
0.057706072
0.057706072
0.057706072
0.057706072
0.057706072
0.057706072
0.057706072
0.057706072
0.057706072
0.057706072
0.057706072
0.0712239
0.065073121
0.057971893
0.060817207
0.05834082
0.056946837
0.05568542
0.054988287
0.053470362
0.051786547
0.050848275
0.050948301
0.053209055
0.055603549
0.057103361
0.057596779
0.057704123
0.057710113
0.057707524
0.057706243
0.057706066
0.057706065
0.057706071
0.057706072
0.057706072
0.057706072
0.057706072
0.057706072
0.057706072
0.057706072
0.057706072
0.057706072
0.057706072
0.057706072
0.057706072
0.057706072
0.057706072
0.057706072
0.057706072
0.057706072
0.057706072
0.057706072
0.057706072
0.057706072
0.057706072
0.057706072
0.057706072
0.057706072
0.057706072
0.057706072
0.057706072
0.057706072
0.057706072
0.057706072
0.057706072
0.057706072
0.057706072
0.057706072
0.057706072
0.057706072
0.057706072
0.057706072
0.057706072
0.057706072
0.057706072
0.057706072
0.057706072
0.057706072
0.057706072
0.057706072
0.057706072
0.057706072
0.057706072
0.057706072
0.057706072
0.057706072
0.057706072
0.057706072
0.057706072
0.057706072
0.074038782
0.064746581
0.057769897
0.060005778
0.057777443
0.055595696
0.054365477
0.053477647
0.051561717
0.049610626
0.04870851
0.04914478
0.05218635
0.05518169
0.056996553
0.057579874
0.057704483
0.057710878
0.057707752
0.057706263
0.057706063
0.057706064
0.05770607
0.057706072
0.057706072
0.057706072
0.057706072
0.057706072
0.057706072
0.057706072
0.057706072
0.057706072
0.057706072
0.057706072
0.057706072
0.057706072
0.057706072
0.057706072
0.057706072
0.057706072
0.057706072
0.057706072
0.057706072
0.057706072
0.057706072
0.057706072
0.057706072
0.057706072
0.057706072
0.057706072
0.057706072
0.057706072
0.057706072
0.057706072
0.057706072
0.057706072
0.057706072
0.057706072
0.057706072
0.057706072
0.057706072
0.057706072
0.057706072
0.057706072
0.057706072
0.057706072
0.057706072
0.057706072
0.057706072
0.057706072
0.057706072
0.057706072
0.057706072
0.057706072
0.057706072
0.057706072
0.057706072
0.057706072
0.057706072
0.057706072
0.073894085
0.063838081
0.056917729
0.058452513
0.056356015
0.053411122
0.052143621
0.050992152
0.048733529
0.046619664
0.045912796
0.047004464
0.051145382
0.054812482
0.056921376
0.057571843
0.057706014
0.057711582
0.057707907
0.057706265
0.05770606
0.057706063
0.05770607
0.057706072
0.057706072
0.057706072
0.057706072
0.057706072
0.057706072
0.057706072
0.057706072
0.057706072
0.057706072
0.057706072
0.057706072
0.057706072
0.057706072
0.057706072
0.057706072
0.057706072
0.057706072
0.057706072
0.057706072
0.057706072
0.057706072
0.057706072
0.057706072
0.057706072
0.057706072
0.057706072
0.057706072
0.057706072
0.057706072
0.057706072
0.057706072
0.057706072
0.057706072
0.057706072
0.057706072
0.057706072
0.057706072
0.057706072
0.057706072
0.057706072
0.057706072
0.057706072
0.057706072
0.057706072
0.057706072
0.057706072
0.057706072
0.057706072
0.057706072
0.057706072
0.057706072
0.057706072
0.057706072
0.057706072
0.057706072
0.057706072
0.072089348
0.06296935
0.054387166
0.055899048
0.0529645
0.050196435
0.048494477
0.047355551
0.044806774
0.042739655
0.042490374
0.044682694
0.050247695
0.054571702
0.05689947
0.057576174
0.057708726
0.057712085
0.057707942
0.057706245
0.057706057
0.057706062
0.05770607
0.057706072
0.057706072
0.057706072
0.057706072
0.057706072
0.057706072
0.057706072
0.057706072
0.057706072
0.057706072
0.057706072
0.057706072
0.057706072
0.057706072
0.057706072
0.057706072
0.057706072
0.057706072
0.057706072
0.057706072
0.057706072
0.057706072
0.057706072
0.057706072
0.057706072
0.057706072
0.057706072
0.057706072
0.057706072
0.057706072
0.057706072
0.057706072
0.057706072
0.057706072
0.057706072
0.057706072
0.057706072
0.057706072
0.057706072
0.057706072
0.057706072
0.057706072
0.057706072
0.057706072
0.057706072
0.057706072
0.057706072
0.057706072
0.057706072
0.057706072
0.057706072
0.057706072
0.057706072
0.057706072
0.057706072
0.057706072
0.057706072
0.071717095
0.059304056
0.050457633
0.050907813
0.047580029
0.045937515
0.043344032
0.042822637
0.039744115
0.037888191
0.038652426
0.042492012
0.049669587
0.054513284
0.056937221
0.057592196
0.057711991
0.05771226
0.057707837
0.057706207
0.057706053
0.057706063
0.057706071
0.057706072
0.057706072
0.057706072
0.057706072
0.057706072
0.057706072
0.057706072
0.057706072
0.057706072
0.057706072
0.057706072
0.057706072
0.057706072
0.057706072
0.057706072
0.057706072
0.057706072
0.057706072
0.057706072
0.057706072
0.057706072
0.057706072
0.057706072
0.057706072
0.057706072
0.057706072
0.057706072
0.057706072
0.057706072
0.057706072
0.057706072
0.057706072
0.057706072
0.057706072
0.057706072
0.057706072
0.057706072
0.057706072
0.057706072
0.057706072
0.057706072
0.057706072
0.057706072
0.057706072
0.057706072
0.057706072
0.057706072
0.057706072
0.057706072
0.057706072
0.057706072
0.057706072
0.057706072
0.057706072
0.057706072
0.057706072
0.057706072
0.067336789
0.049442811
0.045253569
0.042453267
0.040528944
0.040522545
0.037396182
0.037669113
0.03382348
0.032302645
0.034894676
0.040777153
0.049457234
0.054606373
0.057011214
0.057613109
0.05771476
0.057712116
0.057707641
0.057706166
0.057706051
0.057706064
0.057706071
0.057706072
0.057706072
0.057706072
0.057706072
0.057706072
0.057706072
0.057706072
0.057706072
0.057706072
0.057706072
0.057706072
0.057706072
0.057706072
0.057706072
0.057706072
0.057706072
0.057706072
0.057706072
0.057706072
0.057706072
0.057706072
0.057706072
0.057706072
0.057706072
0.057706072
0.057706072
0.057706072
0.057706072
0.057706072
0.057706072
0.057706072
0.057706072
0.057706072
0.057706072
0.057706072
0.057706072
0.057706072
0.057706072
0.057706072
0.057706072
0.057706072
0.057706072
0.057706072
0.057706072
0.057706072
0.057706072
0.057706072
0.057706072
0.057706072
0.057706072
0.057706072
0.057706072
0.057706072
0.057706072
0.057706072
0.057706072
0.057706072
0.056352461
0.036266878
0.037518624
0.032859197
0.031646365
0.034565552
0.031292108
0.032178089
0.02768136
0.026505595
0.031762296
0.039576205
0.049431293
0.05472666
0.057076286
0.05762928
0.057716381
0.05771186
0.057707463
0.057706137
0.05770605
0.057706064
0.057706071
0.057706072
0.057706072
0.057706072
0.057706072
0.057706072
0.057706072
0.057706072
0.057706072
0.057706072
0.057706072
0.057706072
0.057706072
0.057706072
0.057706072
0.057706072
0.057706072
0.057706072
0.057706072
0.057706072
0.057706072
0.057706072
0.057706072
0.057706072
0.057706072
0.057706072
0.057706072
0.057706072
0.057706072
0.057706072
0.057706072
0.057706072
0.057706072
0.057706072
0.057706072
0.057706072
0.057706072
0.057706072
0.057706072
0.057706072
0.057706072
0.057706072
0.057706072
0.057706072
0.057706072
0.057706072
0.057706072
0.057706072
0.057706072
0.057706072
0.057706072
0.057706072
0.057706072
0.057706072
0.057706072
0.057706072
0.057706072
0.057706072
0.04559832
0.024511646
0.025367016
0.024840132
0.02214564
0.029347944
0.025681118
0.027262224
0.022311167
0.021238257
0.029429384
0.038555697
0.04925869
0.054711583
0.057085986
0.057632755
0.057716945
0.057711857
0.057707426
0.057706131
0.05770605
0.057706065
0.057706071
0.057706072
0.057706072
0.057706072
0.057706072
0.057706072
0.057706072
0.057706072
0.057706072
0.057706072
0.057706072
0.057706072
0.057706072
0.057706072
0.057706072
0.057706072
0.057706072
0.057706072
0.057706072
0.057706072
0.057706072
0.057706072
0.057706072
0.057706072
0.057706072
0.057706072
0.057706072
0.057706072
0.057706072
0.057706072
0.057706072
0.057706072
0.057706072
0.057706072
0.057706072
0.057706072
0.057706072
0.057706072
0.057706072
0.057706072
0.057706072
0.057706072
0.057706072
0.057706072
0.057706072
0.057706072
0.057706072
0.057706072
0.057706072
0.057706072
0.057706072
0.057706072
0.057706072
0.057706072
0.057706072
0.057706072
0.057706072
0.057706072
0.04029483
0.013219853
0.010831062
0.020473425
0.014340435
0.026446232
0.02161362
0.024346082
0.019121099
0.017527665
0.027504071
0.037123387
0.04848207
0.054348203
0.056968783
0.057608361
0.057715125
0.057712484
0.057707727
0.057706179
0.05770605
0.057706063
0.057706071
0.057706072
0.057706072
0.057706072
0.057706072
0.057706072
0.057706072
0.057706072
0.057706072
0.057706072
0.057706072
0.057706072
0.057706072
0.057706072
0.057706072
0.057706072
0.057706072
0.057706072
0.057706072
0.057706072
0.057706072
0.057706072
0.057706072
0.057706072
0.057706072
0.057706072
0.057706072
0.057706072
0.057706072
0.057706072
0.057706072
0.057706072
0.057706072
0.057706072
0.057706072
0.057706072
0.057706072
0.057706072
0.057706072
0.057706072
0.057706072
0.057706072
0.057706072
0.057706072
0.057706072
0.057706072
0.057706072
0.057706072
0.057706072
0.057706072
0.057706072
0.057706072
0.057706072
0.057706072
0.057706072
0.057706072
0.057706072
0.057706072
0.055989487
0.052938271
0.053999732
0.054183922
0.054702664
0.054988817
0.055473738
0.056392525
0.05686829
0.057256182
0.05745163
0.057597735
0.057681282
0.057702044
0.057706523
0.057706299
0.057706146
0.057706076
0.057706071
0.057706071
0.057706072
0.057706072
0.057706072
0.057706072
0.057706072
0.057706072
0.057706072
0.057706072
0.057706072
0.057706072
0.057706072
0.057706072