/*--------------------------------*- C++ -*----------------------------------*\
| =========                 |                                                 |
| \\      /  F ield         | OpenFOAM: The Open Source CFD Toolbox           |
|  \\    /   O peration     | Version:  2406                                  |
|   \\  /    A nd           | Website:  www.openfoam.com                      |
|    \\/     M anipulation  |                                                 |
\*---------------------------------------------------------------------------*/
FoamFile
{
    version     2.0;
    format      ascii;
    arch        "LSB;label=32;scalar=64";
    class       volScalarField;
    location    "8e-05";
    object      nut;
}
// * * * * * * * * * * * * * * * * * * * * * * * * * * * * * * * * * * * * * //

dimensions      [0 2 -1 0 0 0 0];

internalField   nonuniform List<scalar> 
16000
(
1.0035692e-05
6.1885067e-05
0.00011295569
0.00014954573
0.00012806091
0.00014478706
0.00017052606
0.00012924852
0.00014232694
0.00015451775
0.00018232748
0.00033812383
0.00072562715
0.00099992834
0.00099992822
0.0009999281
0.00099992801
0.000999928
0.000999928
0.000999928
0.000999928
0.000999928
0.000999928
0.000999928
0.000999928
0.000999928
0.000999928
0.000999928
0.000999928
0.000999928
0.000999928
0.000999928
0.000999928
0.000999928
0.000999928
0.000999928
0.000999928
0.000999928
0.000999928
0.000999928
0.000999928
0.000999928
0.000999928
0.000999928
0.000999928
0.000999928
0.000999928
0.000999928
0.000999928
0.000999928
0.000999928
0.000999928
0.000999928
0.000999928
0.000999928
0.000999928
0.000999928
0.000999928
0.000999928
0.000999928
0.000999928
0.000999928
0.000999928
0.000999928
0.000999928
0.000999928
0.000999928
0.000999928
0.000999928
0.000999928
0.000999928
0.000999928
0.000999928
0.000999928
0.000999928
0.000999928
0.000999928
0.000999928
0.000999928
0.00099992801
9.7344503e-06
0.00012589628
9.9453439e-05
0.00013257053
9.457654e-05
0.00015870468
0.00012439462
0.00011209273
0.00011465217
8.2341089e-05
6.9938195e-05
0.00010966875
0.00021198894
0.00077219047
0.00099992796
0.00099992821
0.00099992806
0.00099992801
0.000999928
0.000999928
0.000999928
0.000999928
0.000999928
0.000999928
0.000999928
0.000999928
0.000999928
0.000999928
0.000999928
0.000999928
0.000999928
0.000999928
0.000999928
0.000999928
0.000999928
0.000999928
0.000999928
0.000999928
0.000999928
0.000999928
0.000999928
0.000999928
0.000999928
0.000999928
0.000999928
0.000999928
0.000999928
0.000999928
0.000999928
0.000999928
0.000999928
0.000999928
0.000999928
0.000999928
0.000999928
0.000999928
0.000999928
0.000999928
0.000999928
0.000999928
0.000999928
0.000999928
0.000999928
0.000999928
0.000999928
0.000999928
0.000999928
0.000999928
0.000999928
0.000999928
0.000999928
0.000999928
0.000999928
0.000999928
0.000999928
0.000999928
0.000999928
0.000999928
0.000999928
0.00099992802
9.4640235e-06
0.00022199627
0.00010846436
0.00010580247
5.8512951e-05
0.00016298088
8.1664011e-05
0.00010245424
9.9877085e-05
5.2935827e-05
4.1827045e-05
6.0946398e-05
0.00010981127
0.00033881964
0.00099992745
0.00099992831
0.00099992813
0.00099992803
0.000999928
0.000999928
0.000999928
0.000999928
0.000999928
0.000999928
0.000999928
0.000999928
0.000999928
0.000999928
0.000999928
0.000999928
0.000999928
0.000999928
0.000999928
0.000999928
0.000999928
0.000999928
0.000999928
0.000999928
0.000999928
0.000999928
0.000999928
0.000999928
0.000999928
0.000999928
0.000999928
0.000999928
0.000999928
0.000999928
0.000999928
0.000999928
0.000999928
0.000999928
0.000999928
0.000999928
0.000999928
0.000999928
0.000999928
0.000999928
0.000999928
0.000999928
0.000999928
0.000999928
0.000999928
0.000999928
0.000999928
0.000999928
0.000999928
0.000999928
0.000999928
0.000999928
0.000999928
0.000999928
0.000999928
0.000999928
0.000999928
0.000999928
0.000999928
0.000999928
0.000999928
0.00099992804
6.8486185e-06
6.2812207e-05
0.00010233609
9.6769782e-05
4.0554309e-05
0.00014661705
6.1528095e-05
8.7750463e-05
9.749949e-05
3.9370737e-05
2.9234207e-05
3.9995235e-05
6.8574744e-05
0.00019212311
0.00099992695
0.00099992844
0.00099992822
0.00099992805
0.000999928
0.000999928
0.000999928
0.000999928
0.000999928
0.000999928
0.000999928
0.000999928
0.000999928
0.000999928
0.000999928
0.000999928
0.000999928
0.000999928
0.000999928
0.000999928
0.000999928
0.000999928
0.000999928
0.000999928
0.000999928
0.000999928
0.000999928
0.000999928
0.000999928
0.000999928
0.000999928
0.000999928
0.000999928
0.000999928
0.000999928
0.000999928
0.000999928
0.000999928
0.000999928
0.000999928
0.000999928
0.000999928
0.000999928
0.000999928
0.000999928
0.000999928
0.000999928
0.000999928
0.000999928
0.000999928
0.000999928
0.000999928
0.000999928
0.000999928
0.000999928
0.000999928
0.000999928
0.000999928
0.000999928
0.000999928
0.000999928
0.000999928
0.000999928
0.000999928
0.000999928
0.00099992805
4.9683685e-06
3.8751132e-05
0.00010198294
8.7723685e-05
3.2279027e-05
0.00012273
5.0689638e-05
7.6052934e-05
9.5281184e-05
3.1986382e-05
2.2304133e-05
2.8896716e-05
4.7290259e-05
0.00012627425
0.00078348685
0.00099992856
0.00099992832
0.00099992808
0.00099992801
0.000999928
0.000999928
0.000999928
0.000999928
0.000999928
0.000999928
0.000999928
0.000999928
0.000999928
0.000999928
0.000999928
0.000999928
0.000999928
0.000999928
0.000999928
0.000999928
0.000999928
0.000999928
0.000999928
0.000999928
0.000999928
0.000999928
0.000999928
0.000999928
0.000999928
0.000999928
0.000999928
0.000999928
0.000999928
0.000999928
0.000999928
0.000999928
0.000999928
0.000999928
0.000999928
0.000999928
0.000999928
0.000999928
0.000999928
0.000999928
0.000999928
0.000999928
0.000999928
0.000999928
0.000999928
0.000999928
0.000999928
0.000999928
0.000999928
0.000999928
0.000999928
0.000999928
0.000999928
0.000999928
0.000999928
0.000999928
0.000999928
0.000999928
0.000999928
0.000999928
0.00099992807
3.8028867e-06
2.6070194e-05
0.00010487386
7.633924e-05
2.975563e-05
0.00011694402
4.9920033e-05
5.8485424e-05
8.8070501e-05
2.7026433e-05
1.7831427e-05
2.2078892e-05
3.4692388e-05
8.8784079e-05
0.00049126754
0.00099992865
0.00099992843
0.00099992813
0.00099992801
0.000999928
0.000999928
0.000999928
0.000999928
0.000999928
0.000999928
0.000999928
0.000999928
0.000999928
0.000999928
0.000999928
0.000999928
0.000999928
0.000999928
0.000999928
0.000999928
0.000999928
0.000999928
0.000999928
0.000999928
0.000999928
0.000999928
0.000999928
0.000999928
0.000999928
0.000999928
0.000999928
0.000999928
0.000999928
0.000999928
0.000999928
0.000999928
0.000999928
0.000999928
0.000999928
0.000999928
0.000999928
0.000999928
0.000999928
0.000999928
0.000999928
0.000999928
0.000999928
0.000999928
0.000999928
0.000999928
0.000999928
0.000999928
0.000999928
0.000999928
0.000999928
0.000999928
0.000999928
0.000999928
0.000999928
0.000999928
0.000999928
0.000999928
0.000999928
0.000999928
0.00099992808
3.0289585e-06
1.8495632e-05
6.9939782e-05
6.8989383e-05
2.9229342e-05
0.00010284372
5.4124907e-05
4.3195138e-05
6.7247963e-05
2.3429396e-05
1.477878e-05
1.75773e-05
2.6573124e-05
6.5421718e-05
0.00032793768
0.00099992871
0.00099992857
0.00099992818
0.00099992802
0.000999928
0.000999928
0.000999928
0.000999928
0.000999928
0.000999928
0.000999928
0.000999928
0.000999928
0.000999928
0.000999928
0.000999928
0.000999928
0.000999928
0.000999928
0.000999928
0.000999928
0.000999928
0.000999928
0.000999928
0.000999928
0.000999928
0.000999928
0.000999928
0.000999928
0.000999928
0.000999928
0.000999928
0.000999928
0.000999928
0.000999928
0.000999928
0.000999928
0.000999928
0.000999928
0.000999928
0.000999928
0.000999928
0.000999928
0.000999928
0.000999928
0.000999928
0.000999928
0.000999928
0.000999928
0.000999928
0.000999928
0.000999928
0.000999928
0.000999928
0.000999928
0.000999928
0.000999928
0.000999928
0.000999928
0.000999928
0.000999928
0.000999928
0.000999928
0.000999928
0.0009999281
2.4894374e-06
1.3676751e-05
4.4569471e-05
5.5071621e-05
3.0037644e-05
7.2776163e-05
6.2922045e-05
3.1919889e-05
4.7501415e-05
2.06076e-05
1.2625684e-05
1.4394449e-05
2.1020657e-05
4.9949923e-05
0.00022966483
0.00099992876
0.00099992871
0.00099992825
0.00099992802
0.000999928
0.000999928
0.000999928
0.000999928
0.000999928
0.000999928
0.000999928
0.000999928
0.000999928
0.000999928
0.000999928
0.000999928
0.000999928
0.000999928
0.000999928
0.000999928
0.000999928
0.000999928
0.000999928
0.000999928
0.000999928
0.000999928
0.000999928
0.000999928
0.000999928
0.000999928
0.000999928
0.000999928
0.000999928
0.000999928
0.000999928
0.000999928
0.000999928
0.000999928
0.000999928
0.000999928
0.000999928
0.000999928
0.000999928
0.000999928
0.000999928
0.000999928
0.000999928
0.000999928
0.000999928
0.000999928
0.000999928
0.000999928
0.000999928
0.000999928
0.000999928
0.000999928
0.000999928
0.000999928
0.000999928
0.000999928
0.000999928
0.000999928
0.000999928
0.000999928
0.00099992812
2.1050791e-06
1.0413814e-05
2.787241e-05
4.4682327e-05
3.2026861e-05
4.9869815e-05
7.0830976e-05
2.5705746e-05
3.3962456e-05
1.8733463e-05
1.0978144e-05
1.2044288e-05
1.7047279e-05
3.9210831e-05
0.00016700587
0.00099992886
0.00099992887
0.00099992834
0.00099992803
0.000999928
0.000999928
0.000999928
0.000999928
0.000999928
0.000999928
0.000999928
0.000999928
0.000999928
0.000999928
0.000999928
0.000999928
0.000999928
0.000999928
0.000999928
0.000999928
0.000999928
0.000999928
0.000999928
0.000999928
0.000999928
0.000999928
0.000999928
0.000999928
0.000999928
0.000999928
0.000999928
0.000999928
0.000999928
0.000999928
0.000999928
0.000999928
0.000999928
0.000999928
0.000999928
0.000999928
0.000999928
0.000999928
0.000999928
0.000999928
0.000999928
0.000999928
0.000999928
0.000999928
0.000999928
0.000999928
0.000999928
0.000999928
0.000999928
0.000999928
0.000999928
0.000999928
0.000999928
0.000999928
0.000999928
0.000999928
0.000999928
0.000999928
0.000999928
0.000999928
0.00099992814
1.825441e-06
8.144898e-06
1.759745e-05
3.5164863e-05
3.5366277e-05
3.5479058e-05
7.039437e-05
2.2246939e-05
2.4797805e-05
1.7585549e-05
9.6594021e-06
1.024339e-05
1.4094789e-05
3.1465338e-05
0.000125145
0.00088368215
0.00099992903
0.00099992843
0.00099992805
0.000999928
0.000999928
0.000999928
0.000999928
0.000999928
0.000999928
0.000999928
0.000999928
0.000999928
0.000999928
0.000999928
0.000999928
0.000999928
0.000999928
0.000999928
0.000999928
0.000999928
0.000999928
0.000999928
0.000999928
0.000999928
0.000999928
0.000999928
0.000999928
0.000999928
0.000999928
0.000999928
0.000999928
0.000999928
0.000999928
0.000999928
0.000999928
0.000999928
0.000999928
0.000999928
0.000999928
0.000999928
0.000999928
0.000999928
0.000999928
0.000999928
0.000999928
0.000999928
0.000999928
0.000999928
0.000999928
0.000999928
0.000999928
0.000999928
0.000999928
0.000999928
0.000999928
0.000999928
0.000999928
0.000999928
0.000999928
0.000999928
0.000999928
0.000999928
0.000999928
0.00099992816
1.6875892e-06
6.4821385e-06
1.1627549e-05
2.6989182e-05
3.7748165e-05
2.6056173e-05
5.9239428e-05
1.9940423e-05
1.9104256e-05
1.6810628e-05
8.6256297e-06
8.8215394e-06
1.1831907e-05
2.5695616e-05
9.6070076e-05
0.00063859111
0.00099992921
0.00099992855
0.00099992807
0.000999928
0.000999928
0.000999928
0.000999928
0.000999928
0.000999928
0.000999928
0.000999928
0.000999928
0.000999928
0.000999928
0.000999928
0.000999928
0.000999928
0.000999928
0.000999928
0.000999928
0.000999928
0.000999928
0.000999928
0.000999928
0.000999928
0.000999928
0.000999928
0.000999928
0.000999928
0.000999928
0.000999928
0.000999928
0.000999928
0.000999928
0.000999928
0.000999928
0.000999928
0.000999928
0.000999928
0.000999928
0.000999928
0.000999928
0.000999928
0.000999928
0.000999928
0.000999928
0.000999928
0.000999928
0.000999928
0.000999928
0.000999928
0.000999928
0.000999928
0.000999928
0.000999928
0.000999928
0.000999928
0.000999928
0.000999928
0.000999928
0.000999928
0.000999928
0.000999928
0.00099992818
1.6451734e-06
5.2182481e-06
8.0701456e-06
2.1170573e-05
3.5330652e-05
1.9633374e-05
4.7935419e-05
1.8372256e-05
1.5342948e-05
1.6244358e-05
7.7935198e-06
7.6726567e-06
1.0053167e-05
2.1276846e-05
7.5194166e-05
0.00047447454
0.00099992939
0.00099992867
0.00099992809
0.000999928
0.000999928
0.000999928
0.000999928
0.000999928
0.000999928
0.000999928
0.000999928
0.000999928
0.000999928
0.000999928
0.000999928
0.000999928
0.000999928
0.000999928
0.000999928
0.000999928
0.000999928
0.000999928
0.000999928
0.000999928
0.000999928
0.000999928
0.000999928
0.000999928
0.000999928
0.000999928
0.000999928
0.000999928
0.000999928
0.000999928
0.000999928
0.000999928
0.000999928
0.000999928
0.000999928
0.000999928
0.000999928
0.000999928
0.000999928
0.000999928
0.000999928
0.000999928
0.000999928
0.000999928
0.000999928
0.000999928
0.000999928
0.000999928
0.000999928
0.000999928
0.000999928
0.000999928
0.000999928
0.000999928
0.000999928
0.000999928
0.000999928
0.000999928
0.000999928
0.0009999282
1.660888e-06
4.2878493e-06
5.9931433e-06
1.7082635e-05
2.8847637e-05
1.5266205e-05
3.9388582e-05
1.7700841e-05
1.2641386e-05
1.5838094e-05
7.1047772e-06
6.7249642e-06
8.6244094e-06
1.7812047e-05
5.9776185e-05
0.00036040935
0.00099992958
0.00099992881
0.00099992812
0.000999928
0.000999928
0.000999928
0.000999928
0.000999928
0.000999928
0.000999928
0.000999928
0.000999928
0.000999928
0.000999928
0.000999928
0.000999928
0.000999928
0.000999928
0.000999928
0.000999928
0.000999928
0.000999928
0.000999928
0.000999928
0.000999928
0.000999928
0.000999928
0.000999928
0.000999928
0.000999928
0.000999928
0.000999928
0.000999928
0.000999928
0.000999928
0.000999928
0.000999928
0.000999928
0.000999928
0.000999928
0.000999928
0.000999928
0.000999928
0.000999928
0.000999928
0.000999928
0.000999928
0.000999928
0.000999928
0.000999928
0.000999928
0.000999928
0.000999928
0.000999928
0.000999928
0.000999928
0.000999928
0.000999928
0.000999928
0.000999928
0.000999928
0.000999928
0.000999928
0.00099992823
1.7256271e-06
3.6013595e-06
5.4584225e-06
1.417613e-05
2.2259726e-05
1.2208198e-05
3.2094625e-05
1.6932317e-05
1.0608638e-05
1.5580634e-05
6.5260117e-06
5.9319757e-06
7.4546794e-06
1.5039695e-05
4.8108066e-05
0.00027860146
0.00099992977
0.00099992897
0.00099992815
0.00099992801
0.000999928
0.000999928
0.000999928
0.000999928
0.000999928
0.000999928
0.000999928
0.000999928
0.000999928
0.000999928
0.000999928
0.000999928
0.000999928
0.000999928
0.000999928
0.000999928
0.000999928
0.000999928
0.000999928
0.000999928
0.000999928
0.000999928
0.000999928
0.000999928
0.000999928
0.000999928
0.000999928
0.000999928
0.000999928
0.000999928
0.000999928
0.000999928
0.000999928
0.000999928
0.000999928
0.000999928
0.000999928
0.000999928
0.000999928
0.000999928
0.000999928
0.000999928
0.000999928
0.000999928
0.000999928
0.000999928
0.000999928
0.000999928
0.000999928
0.000999928
0.000999928
0.000999928
0.000999928
0.000999928
0.000999928
0.000999928
0.000999928
0.000999928
0.000999928
0.00099992825
1.8835736e-06
3.1510153e-06
4.5369957e-06
1.1923487e-05
1.6946155e-05
9.9262971e-06
2.6011405e-05
1.6311244e-05
9.0473143e-06
1.5436822e-05
6.0362427e-06
5.2623333e-06
6.4833261e-06
1.278588e-05
3.9101052e-05
0.00021841379
0.00099992996
0.00099992914
0.0009999282
0.00099992801
0.000999928
0.000999928
0.000999928
0.000999928
0.000999928
0.000999928
0.000999928
0.000999928
0.000999928
0.000999928
0.000999928
0.000999928
0.000999928
0.000999928
0.000999928
0.000999928
0.000999928
0.000999928
0.000999928
0.000999928
0.000999928
0.000999928
0.000999928
0.000999928
0.000999928
0.000999928
0.000999928
0.000999928
0.000999928
0.000999928
0.000999928
0.000999928
0.000999928
0.000999928
0.000999928
0.000999928
0.000999928
0.000999928
0.000999928
0.000999928
0.000999928
0.000999928
0.000999928
0.000999928
0.000999928
0.000999928
0.000999928
0.000999928
0.000999928
0.000999928
0.000999928
0.000999928
0.000999928
0.000999928
0.000999928
0.000999928
0.000999928
0.000999928
0.000999928
0.00099992828
2.2198315e-06
2.7940627e-06
2.8849461e-06
1.0905009e-05
1.2977309e-05
8.2059269e-06
2.1294798e-05
1.6179163e-05
7.8294539e-06
1.5288809e-05
5.6136686e-06
4.6908587e-06
5.6674854e-06
1.0931868e-05
3.2045376e-05
0.00017326641
0.00099993015
0.00099992934
0.00099992825
0.00099992801
0.000999928
0.000999928
0.000999928
0.000999928
0.000999928
0.000999928
0.000999928
0.000999928
0.000999928
0.000999928
0.000999928
0.000999928
0.000999928
0.000999928
0.000999928
0.000999928
0.000999928
0.000999928
0.000999928
0.000999928
0.000999928
0.000999928
0.000999928
0.000999928
0.000999928
0.000999928
0.000999928
0.000999928
0.000999928
0.000999928
0.000999928
0.000999928
0.000999928
0.000999928
0.000999928
0.000999928
0.000999928
0.000999928
0.000999928
0.000999928
0.000999928
0.000999928
0.000999928
0.000999928
0.000999928
0.000999928
0.000999928
0.000999928
0.000999928
0.000999928
0.000999928
0.000999928
0.000999928
0.000999928
0.000999928
0.000999928
0.000999928
0.000999928
0.000999928
0.00099992831
2.8172824e-06
2.4291135e-06
2.3245531e-06
9.3643144e-06
1.0380407e-05
6.8788503e-06
1.7767662e-05
1.6535685e-05
6.846197e-06
1.4875543e-05
5.2261811e-06
4.1907007e-06
4.9728086e-06
9.3916326e-06
2.6470467e-05
0.00013901121
0.00099993033
0.00099992955
0.00099992831
0.00099992802
0.000999928
0.000999928
0.000999928
0.000999928
0.000999928
0.000999928
0.000999928
0.000999928
0.000999928
0.000999928
0.000999928
0.000999928
0.000999928
0.000999928
0.000999928
0.000999928
0.000999928
0.000999928
0.000999928
0.000999928
0.000999928
0.000999928
0.000999928
0.000999928
0.000999928
0.000999928
0.000999928
0.000999928
0.000999928
0.000999928
0.000999928
0.000999928
0.000999928
0.000999928
0.000999928
0.000999928
0.000999928
0.000999928
0.000999928
0.000999928
0.000999928
0.000999928
0.000999928
0.000999928
0.000999928
0.000999928
0.000999928
0.000999928
0.000999928
0.000999928
0.000999928
0.000999928
0.000999928
0.000999928
0.000999928
0.000999928
0.000999928
0.000999928
0.000999928
0.00099992834
2.814131e-06
2.2411228e-06
1.8696746e-06
9.2089877e-06
8.2236371e-06
5.8637798e-06
1.5528617e-05
1.6695789e-05
5.9979925e-06
1.4092664e-05
4.8369927e-06
3.7364237e-06
4.369784e-06
8.0989099e-06
2.2054576e-05
0.00011297148
0.00099993051
0.00099992979
0.00099992837
0.00099992802
0.00099992799
0.000999928
0.000999928
0.000999928
0.000999928
0.000999928
0.000999928
0.000999928
0.000999928
0.000999928
0.000999928
0.000999928
0.000999928
0.000999928
0.000999928
0.000999928
0.000999928
0.000999928
0.000999928
0.000999928
0.000999928
0.000999928
0.000999928
0.000999928
0.000999928
0.000999928
0.000999928
0.000999928
0.000999928
0.000999928
0.000999928
0.000999928
0.000999928
0.000999928
0.000999928
0.000999928
0.000999928
0.000999928
0.000999928
0.000999928
0.000999928
0.000999928
0.000999928
0.000999928
0.000999928
0.000999928
0.000999928
0.000999928
0.000999928
0.000999928
0.000999928
0.000999928
0.000999928
0.000999928
0.000999928
0.000999928
0.000999928
0.000999928
0.000999928
0.00099992838
2.6236568e-06
1.6567153e-06
1.5364823e-06
7.2548866e-06
6.7712381e-06
4.8317828e-06
1.3210853e-05
1.5641243e-05
5.2311839e-06
1.3172866e-05
4.4549317e-06
3.3204413e-06
3.8443061e-06
7.0116842e-06
1.8571194e-05
9.3324187e-05
0.00099993072
0.00099993004
0.00099992845
0.00099992803
0.00099992799
0.000999928
0.000999928
0.000999928
0.000999928
0.000999928
0.000999928
0.000999928
0.000999928
0.000999928
0.000999928
0.000999928
0.000999928
0.000999928
0.000999928
0.000999928
0.000999928
0.000999928
0.000999928
0.000999928
0.000999928
0.000999928
0.000999928
0.000999928
0.000999928
0.000999928
0.000999928
0.000999928
0.000999928
0.000999928
0.000999928
0.000999928
0.000999928
0.000999928
0.000999928
0.000999928
0.000999928
0.000999928
0.000999928
0.000999928
0.000999928
0.000999928
0.000999928
0.000999928
0.000999928
0.000999928
0.000999928
0.000999928
0.000999928
0.000999928
0.000999928
0.000999928
0.000999928
0.000999928
0.000999928
0.000999928
0.000999928
0.000999928
0.000999928
0.00099992841
1.9029965e-06
1.465212e-06
1.2432582e-06
6.3404366e-06
5.8264208e-06
4.6990085e-06
1.0844407e-05
1.4031305e-05
4.575745e-06
1.2128067e-05
4.1143294e-06
2.9637297e-06
3.4026967e-06
6.1234325e-06
1.5877109e-05
7.8745264e-05
0.00099993098
0.00099993031
0.00099992853
0.00099992804
0.00099992799
0.000999928
0.000999928
0.000999928
0.000999928
0.000999928
0.000999928
0.000999928
0.000999928
0.000999928
0.000999928
0.000999928
0.000999928
0.000999928
0.000999928
0.000999928
0.000999928
0.000999928
0.000999928
0.000999928
0.000999928
0.000999928
0.000999928
0.000999928
0.000999928
0.000999928
0.000999928
0.000999928
0.000999928
0.000999928
0.000999928
0.000999928
0.000999928
0.000999928
0.000999928
0.000999928
0.000999928
0.000999928
0.000999928
0.000999928
0.000999928
0.000999928
0.000999928
0.000999928
0.000999928
0.000999928
0.000999928
0.000999928
0.000999928
0.000999928
0.000999928
0.000999928
0.000999928
0.000999928
0.000999928
0.000999928
0.000999928
0.000999928
0.000999928
0.00099992845
1.7942472e-06
1.5313481e-06
9.932779e-07
9.346756e-06
4.4704212e-06
4.2542332e-06
9.5639289e-06
1.4472438e-05
4.1938549e-06
1.0948694e-05
3.8146957e-06
2.6891413e-06
3.0541643e-06
5.4440458e-06
1.3905627e-05
6.8422519e-05
0.00099993129
0.00099993057
0.0009999286
0.00099992804
0.00099992799
0.000999928
0.000999928
0.000999928
0.000999928
0.000999928
0.000999928
0.000999928
0.000999928
0.000999928
0.000999928
0.000999928
0.000999928
0.000999928
0.000999928
0.000999928
0.000999928
0.000999928
0.000999928
0.000999928
0.000999928
0.000999928
0.000999928
0.000999928
0.000999928
0.000999928
0.000999928
0.000999928
0.000999928
0.000999928
0.000999928
0.000999928
0.000999928
0.000999928
0.000999928
0.000999928
0.000999928
0.000999928
0.000999928
0.000999928
0.000999928
0.000999928
0.000999928
0.000999928
0.000999928
0.000999928
0.000999928
0.000999928
0.000999928
0.000999928
0.000999928
0.000999928
0.000999928
0.000999928
0.000999928
0.000999928
0.000999928
0.000999928
0.000999928
0.00099992849
2.0277801e-06
1.2022971e-06
8.6803265e-07
5.6020596e-06
3.873575e-06
3.8768533e-06
9.5051527e-06
1.2908057e-05
3.898699e-06
9.5783457e-06
3.5366217e-06
2.4765274e-06
2.7935757e-06
4.9642018e-06
1.2631193e-05
6.2145079e-05
0.00099993162
0.00099993079
0.00099992865
0.00099992804
0.00099992799
0.000999928
0.000999928
0.000999928
0.000999928
0.000999928
0.000999928
0.000999928
0.000999928
0.000999928
0.000999928
0.000999928
0.000999928
0.000999928
0.000999928
0.000999928
0.000999928
0.000999928
0.000999928
0.000999928
0.000999928
0.000999928
0.000999928
0.000999928
0.000999928
0.000999928
0.000999928
0.000999928
0.000999928
0.000999928
0.000999928
0.000999928
0.000999928
0.000999928
0.000999928
0.000999928
0.000999928
0.000999928
0.000999928
0.000999928
0.000999928
0.000999928
0.000999928
0.000999928
0.000999928
0.000999928
0.000999928
0.000999928
0.000999928
0.000999928
0.000999928
0.000999928
0.000999928
0.000999928
0.000999928
0.000999928
0.000999928
0.000999928
0.000999928
0.00099992853
1.4640805e-06
1.2546199e-06
7.5168358e-07
4.8110786e-06
3.5252736e-06
4.0470935e-06
9.8129376e-06
1.0494152e-05
4.2029923e-06
1.1663816e-05
3.2364469e-06
2.3086291e-06
2.6081867e-06
4.6731549e-06
1.2058193e-05
5.9979373e-05
0.00099993194
0.00099993094
0.00099992866
0.00099992804
0.00099992799
0.000999928
0.000999928
0.000999928
0.000999928
0.000999928
0.000999928
0.000999928
0.000999928
0.000999928
0.000999928
0.000999928
0.000999928
0.000999928
0.000999928
0.000999928
0.000999928
0.000999928
0.000999928
0.000999928
0.000999928
0.000999928
0.000999928
0.000999928
0.000999928
0.000999928
0.000999928
0.000999928
0.000999928
0.000999928
0.000999928
0.000999928
0.000999928
0.000999928
0.000999928
0.000999928
0.000999928
0.000999928
0.000999928
0.000999928
0.000999928
0.000999928
0.000999928
0.000999928
0.000999928
0.000999928
0.000999928
0.000999928
0.000999928
0.000999928
0.000999928
0.000999928
0.000999928
0.000999928
0.000999928
0.000999928
0.000999928
0.000999928
0.000999928
0.00099992857
1.043342e-06
1.0941838e-06
6.7401682e-07
3.3207574e-06
3.4381963e-06
4.2838521e-06
1.0663818e-05
8.8607088e-06
4.8079311e-06
9.6432066e-06
2.9364609e-06
2.1855531e-06
2.4961023e-06
4.5681185e-06
1.2225444e-05
6.2409465e-05
0.00099993223
0.00099993096
0.00099992863
0.00099992804
0.00099992799
0.000999928
0.000999928
0.000999928
0.000999928
0.000999928
0.000999928
0.000999928
0.000999928
0.000999928
0.000999928
0.000999928
0.000999928
0.000999928
0.000999928
0.000999928
0.000999928
0.000999928
0.000999928
0.000999928
0.000999928
0.000999928
0.000999928
0.000999928
0.000999928
0.000999928
0.000999928
0.000999928
0.000999928
0.000999928
0.000999928
0.000999928
0.000999928
0.000999928
0.000999928
0.000999928
0.000999928
0.000999928
0.000999928
0.000999928
0.000999928
0.000999928
0.000999928
0.000999928
0.000999928
0.000999928
0.000999928
0.000999928
0.000999928
0.000999928
0.000999928
0.000999928
0.000999928
0.000999928
0.000999928
0.000999928
0.000999928
0.000999928
0.000999928
0.00099992861
8.8588884e-07
1.1808196e-06
5.9438131e-07
3.0816078e-06
3.5265506e-06
2.9820965e-06
8.5670471e-06
8.027686e-06
4.4601656e-06
6.0963318e-06
2.6436524e-06
2.093756e-06
2.4526293e-06
4.651642e-06
1.3237475e-05
7.0489858e-05
0.00099993247
0.00099993086
0.00099992854
0.00099992802
0.00099992799
0.000999928
0.000999928
0.000999928
0.000999928
0.000999928
0.000999928
0.000999928
0.000999928
0.000999928
0.000999928
0.000999928
0.000999928
0.000999928
0.000999928
0.000999928
0.000999928
0.000999928
0.000999928
0.000999928
0.000999928
0.000999928
0.000999928
0.000999928
0.000999928
0.000999928
0.000999928
0.000999928
0.000999928
0.000999928
0.000999928
0.000999928
0.000999928
0.000999928
0.000999928
0.000999928
0.000999928
0.000999928
0.000999928
0.000999928
0.000999928
0.000999928
0.000999928
0.000999928
0.000999928
0.000999928
0.000999928
0.000999928
0.000999928
0.000999928
0.000999928
0.000999928
0.000999928
0.000999928
0.000999928
0.000999928
0.000999928
0.000999928
0.000999928
0.00099992865
7.1789456e-07
1.0705846e-06
5.5171945e-07
2.7948087e-06
3.8197605e-06
1.8424545e-06
6.6774131e-06
7.5065073e-06
3.5425096e-06
4.3838121e-06
2.3956474e-06
2.0240012e-06
2.4716902e-06
4.921328e-06
1.5243538e-05
8.627207e-05
0.0009999326
0.00099993064
0.00099992842
0.00099992801
0.00099992799
0.000999928
0.000999928
0.000999928
0.000999928
0.000999928
0.000999928
0.000999928
0.000999928
0.000999928
0.000999928
0.000999928
0.000999928
0.000999928
0.000999928
0.000999928
0.000999928
0.000999928
0.000999928
0.000999928
0.000999928
0.000999928
0.000999928
0.000999928
0.000999928
0.000999928
0.000999928
0.000999928
0.000999928
0.000999928
0.000999928
0.000999928
0.000999928
0.000999928
0.000999928
0.000999928
0.000999928
0.000999928
0.000999928
0.000999928
0.000999928
0.000999928
0.000999928
0.000999928
0.000999928
0.000999928
0.000999928
0.000999928
0.000999928
0.000999928
0.000999928
0.000999928
0.000999928
0.000999928
0.000999928
0.000999928
0.000999928
0.000999928
0.000999928
0.00099992869
6.7089435e-07
7.5816437e-07
5.6956503e-07
3.1457984e-06
4.079655e-06
1.8314976e-06
5.8917797e-06
6.6169786e-06
3.4677666e-06
3.7999966e-06
2.2055071e-06
1.9872057e-06
2.5441521e-06
5.3269122e-06
1.8151683e-05
0.00011091819
0.00099993253
0.00099993035
0.00099992832
0.000999928
0.00099992799
0.000999928
0.000999928
0.000999928
0.000999928
0.000999928
0.000999928
0.000999928
0.000999928
0.000999928
0.000999928
0.000999928
0.000999928
0.000999928
0.000999928
0.000999928
0.000999928
0.000999928
0.000999928
0.000999928
0.000999928
0.000999928
0.000999928
0.000999928
0.000999928
0.000999928
0.000999928
0.000999928
0.000999928
0.000999928
0.000999928
0.000999928
0.000999928
0.000999928
0.000999928
0.000999928
0.000999928
0.000999928
0.000999928
0.000999928
0.000999928
0.000999928
0.000999928
0.000999928
0.000999928
0.000999928
0.000999928
0.000999928
0.000999928
0.000999928
0.000999928
0.000999928
0.000999928
0.000999928
0.000999928
0.000999928
0.000999928
0.000999928
0.00099992801
0.00099992872
5.5023315e-07
7.7460444e-07
6.3948691e-07
3.6041671e-06
3.2416106e-06
2.1649904e-06
5.1065892e-06
5.9788609e-06
3.5573899e-06
3.4757927e-06
2.060393e-06
1.9845803e-06
2.6297747e-06
5.7283719e-06
2.1109661e-05
0.00013863753
0.00099993237
0.00099993007
0.00099992824
0.000999928
0.00099992799
0.000999928
0.000999928
0.000999928
0.000999928
0.000999928
0.000999928
0.000999928
0.000999928
0.000999928
0.000999928
0.000999928
0.000999928
0.000999928
0.000999928
0.000999928
0.000999928
0.000999928
0.000999928
0.000999928
0.000999928
0.000999928
0.000999928
0.000999928
0.000999928
0.000999928
0.000999928
0.000999928
0.000999928
0.000999928
0.000999928
0.000999928
0.000999928
0.000999928
0.000999928
0.000999928
0.000999928
0.000999928
0.000999928
0.000999928
0.000999928
0.000999928
0.000999928
0.000999928
0.000999928
0.000999928
0.000999928
0.000999928
0.000999928
0.000999928
0.000999928
0.000999928
0.000999928
0.000999928
0.000999928
0.000999928
0.000999928
0.000999928
0.00099992801
0.00099992874
5.8641126e-07
8.7870759e-07
7.1677725e-07
4.1157988e-06
2.67467e-06
2.8393093e-06
4.5537683e-06
5.776354e-06
4.8081748e-06
3.9828304e-06
1.9677539e-06
1.9917305e-06
2.6583367e-06
5.8763455e-06
2.2167792e-05
0.0001495097
0.0009999323
0.00099992997
0.00099992822
0.00099992799
0.00099992799
0.000999928
0.000999928
0.000999928
0.000999928
0.000999928
0.000999928
0.000999928
0.000999928
0.000999928
0.000999928
0.000999928
0.000999928
0.000999928
0.000999928
0.000999928
0.000999928
0.000999928
0.000999928
0.000999928
0.000999928
0.000999928
0.000999928
0.000999928
0.000999928
0.000999928
0.000999928
0.000999928
0.000999928
0.000999928
0.000999928
0.000999928
0.000999928
0.000999928
0.000999928
0.000999928
0.000999928
0.000999928
0.000999928
0.000999928
0.000999928
0.000999928
0.000999928
0.000999928
0.000999928
0.000999928
0.000999928
0.000999928
0.000999928
0.000999928
0.000999928
0.000999928
0.000999928
0.000999928
0.000999928
0.000999928
0.000999928
0.000999928
0.00099992801
0.00099992875
1.1271775e-06
1.8254296e-06
7.0994704e-07
3.5264835e-06
2.8885565e-06
3.4014296e-06
4.4492616e-06