/*--------------------------------*- C++ -*----------------------------------*\
| =========                 |                                                 |
| \\      /  F ield         | OpenFOAM: The Open Source CFD Toolbox           |
|  \\    /   O peration     | Version:  2406                                  |
|   \\  /    A nd           | Website:  www.openfoam.com                      |
|    \\/     M anipulation  |                                                 |
\*---------------------------------------------------------------------------*/
FoamFile
{
    version     2.0;
    format      ascii;
    arch        "LSB;label=32;scalar=64";
    class       volScalarField;
    location    "8e-05";
    object      p;
}
// * * * * * * * * * * * * * * * * * * * * * * * * * * * * * * * * * * * * * //

dimensions      [1 -1 -2 0 0 0 0];

internalField   nonuniform List<scalar> 
16000
(
100051.02
100031.7
100066.75
100028.04
100051.01
100028.3
100047.65
100046.5
100055.65
100039.43
100024.86
100008.73
100002.22
99999.829
99999.887
99999.95
99999.998
100000
100000
100000
100000
100000
100000
100000
100000
100000
100000
100000
100000
100000
100000
100000
100000
100000
100000
100000
100000
100000
100000
100000
100000
100000
100000
100000
100000
100000
100000
100000
100000
100000
100000
100000
100000
100000
100000
100000
100000
100000
100000
100000
100000
100000
100000
100000
100000
100000
100000
100000
100000
100000
100000
100000
100000
100000
100000
100000
100000
100000
100000
100000
100134.61
100132.27
100143.89
100133.67
100143.89
100121.44
100137.25
100151.88
100166.84
100129.23
100083.92
100033.89
100010.76
100001.57
100000.02
99999.889
99999.969
99999.995
100000
100000
100000
100000
100000
100000
100000
100000
100000
100000
100000
100000
100000
100000
100000
100000
100000
100000
100000
100000
100000
100000
100000
100000
100000
100000
100000
100000
100000
100000
100000
100000
100000
100000
100000
100000
100000
100000
100000
100000
100000
100000
100000
100000
100000
100000
100000
100000
100000
100000
100000
100000
100000
100000
100000
100000
100000
100000
100000
100000
100000
100000
100235.27
100235.53
100237.15
100240.19
100233.56
100226.14
100222.13
100266.05
100283.06
100228.22
100153.77
100068.02
100023.55
100004.42
100000.34
99999.835
99999.932
99999.986
100000
100000
100000
100000
100000
100000
100000
100000
100000
100000
100000
100000
100000
100000
100000
100000
100000
100000
100000
100000
100000
100000
100000
100000
100000
100000
100000
100000
100000
100000
100000
100000
100000
100000
100000
100000
100000
100000
100000
100000
100000
100000
100000
100000
100000
100000
100000
100000
100000
100000
100000
100000
100000
100000
100000
100000
100000
100000
100000
100000
100000
100000
100338.69
100364.43
100312
100353.57
100336.39
100328.78
100302.07
100382.46
100403.89
100338.19
100236.29
100110.04
100040.13
100008.29
100000.84
99999.762
99999.887
99999.974
100000
100000
100000
100000
100000
100000
100000
100000
100000
100000
100000
100000
100000
100000
100000
100000
100000
100000
100000
100000
100000
100000
100000
100000
100000
100000
100000
100000
100000
100000
100000
100000
100000
100000
100000
100000
100000
100000
100000
100000
100000
100000
100000
100000
100000
100000
100000
100000
100000
100000
100000
100000
100000
100000
100000
100000
100000
100000
100000
100000
100000
100000
100452.47
100476.83
100389.8
100471.9
100454.72
100431.48
100373.03
100504.98
100528.9
100455.8
100330.01
100160.51
100061.21
100013.61
100001.63
99999.695
99999.833
99999.957
99999.999
100000
100000
100000
100000
100000
100000
100000
100000
100000
100000
100000
100000
100000
100000
100000
100000
100000
100000
100000
100000
100000
100000
100000
100000
100000
100000
100000
100000
100000
100000
100000
100000
100000
100000
100000
100000
100000
100000
100000
100000
100000
100000
100000
100000
100000
100000
100000
100000
100000
100000
100000
100000
100000
100000
100000
100000
100000
100000
100000
100000
100000
100559.61
100596.54
100468.55
100598.16
100579.8
100531.53
100451.17
100624.42
100661.5
100582.36
100435.27
100219.85
100087.2
100020.66
100002.82
99999.648
99999.77
99999.934
99999.997
100000
100000
100000
100000
100000
100000
100000
100000
100000
100000
100000
100000
100000
100000
100000
100000
100000
100000
100000
100000
100000
100000
100000
100000
100000
100000
100000
100000
100000
100000
100000
100000
100000
100000
100000
100000
100000
100000
100000
100000
100000
100000
100000
100000
100000
100000
100000
100000
100000
100000
100000
100000
100000
100000
100000
100000
100000
100000
100000
100000
100000
100673.39
100718.87
100546.86
100733.96
100706.92
100637.78
100538.07
100745.11
100800.84
100714.52
100551.11
100288.35
100118.5
100029.65
100004.47
99999.635
99999.699
99999.905
99999.994
100000
100000
100000
100000
100000
100000
100000
100000
100000
100000
100000
100000
100000
100000
100000
100000
100000
100000
100000
100000
100000
100000
100000
100000
100000
100000
100000
100000
100000
100000
100000
100000
100000
100000
100000
100000
100000
100000
100000
100000
100000
100000
100000
100000
100000
100000
100000
100000
100000
100000
100000
100000
100000
100000
100000
100000
100000
100000
100000
100000
100000
100793.43
100847.14
100623.85
100879.77
100838.79
100753.72
100635.16
100863.67
100938.85
100859.56
100677.88
100366.08
100155.37
100040.78
100006.68
99999.672
99999.621
99999.868
99999.989
100000
100000
100000
100000
100000
100000
100000
100000
100000
100000
100000
100000
100000
100000
100000
100000
100000
100000
100000
100000
100000
100000
100000
100000
100000
100000
100000
100000
100000
100000
100000
100000
100000
100000
100000
100000
100000
100000
100000
100000
100000
100000
100000
100000
100000
100000
100000
100000
100000
100000
100000
100000
100000
100000
100000
100000
100000
100000
100000
100000
100000
100920.04
100988.84
100695.68
101038.99
100972.71
100879.17
100738.06
100981.73
101081.97
101014.96
100815.82
100453.22
100198.08
100054.25
100009.51
99999.777
99999.536
99999.824
99999.984
100000
100000
100000
100000
100000
100000
100000
100000
100000
100000
100000
100000
100000
100000
100000
100000
100000
100000
100000
100000
100000
100000
100000
100000
100000
100000
100000
100000
100000
100000
100000
100000
100000
100000
100000
100000
100000
100000
100000
100000
100000
100000
100000
100000
100000
100000
100000
100000
100000
100000
100000
100000
100000
100000
100000
100000
100000
100000
100000
100000
100000
101051.99
101146.09
100762.77
101215.35
101105.49
101015.6
100847.39
101102.37
101226.65
101184.55
100965.75
100550.13
100246.97
100070.27
100013.06
99999.971
99999.444
99999.771
99999.976
100000
100000
100000
100000
100000
100000
100000
100000
100000
100000
100000
100000
100000
100000
100000
100000
100000
100000
100000
100000
100000
100000
100000
100000
100000
100000
100000
100000
100000
100000
100000
100000
100000
100000
100000
100000
100000
100000
100000
100000
100000
100000
100000
100000
100000
100000
100000
100000
100000
100000
100000
100000
100000
100000
100000
100000
100000
100000
100000
100000
100000
101186.29
101321.98
100828.31
101408.46
101235.76
101166.04
100964.86
101229.73
101372.3
101367.51
101127.74
100657.5
100302.56
100089.1
100017.42
100000.27
99999.346
99999.711
99999.966
100000
100000
100000
100000
100000
100000
100000
100000
100000
100000
100000
100000
100000
100000
100000
100000
100000
100000
100000
100000
100000
100000
100000
100000
100000
100000
100000
100000
100000
100000
100000
100000
100000
100000
100000
100000
100000
100000
100000
100000
100000
100000
100000
100000
100000
100000
100000
100000
100000
100000
100000
100000
100000
100000
100000
100000
100000
100000
100000
100000
100000
101321.28
101520.79
100892.74
101619.91
101362.25
101333.66
101090.84
101366.07
101522.06
101564.82
101301.07
100776.29
100365.55
100111.06
100022.7
100000.71
99999.244
99999.643
99999.954
100000
100000
100000
100000
100000
100000
100000
100000
100000
100000
100000
100000
100000
100000
100000
100000
100000
100000
100000
100000
100000
100000
100000
100000
100000
100000
100000
100000
100000
100000
100000
100000
100000
100000
100000
100000
100000
100000
100000
100000
100000
100000
100000
100000
100000
100000
100000
100000
100000
100000
100000
100000
100000
100000
100000
100000
100000
100000
100000
100000
100000
101454.12
101746.26
100959.73
101850.71
101490.3
101516.73
101224.54
101510.86
101677.91
101775.68
101488.91
100907.84
100436.83
100136.54
100029.04
100001.3
99999.137
99999.566
99999.939
100000
100000
100000
100000
100000
100000
100000
100000
100000
100000
100000
100000
100000
100000
100000
100000
100000
100000
100000
100000
100000
100000
100000
100000
100000
100000
100000
100000
100000
100000
100000
100000
100000
100000
100000
100000
100000
100000
100000
100000
100000
100000
100000
100000
100000
100000
100000
100000
100000
100000
100000
100000
100000
100000
100000
100000
100000
100000
100000
100000
100000
101590.48
101997.96
101028
102102.91
101624.2
101716.4
101368.34
101663.66
101840.66
102000.7
101693.29
101053.93
100517.56
100166.08
100036.62
100002.09
99999.028
99999.481
99999.921
99999.998
100000
100000
100000
100000
100000
100000
100000
100000
100000
100000
100000
100000
100000
100000
100000
100000
100000
100000
100000
100000
100000
100000
100000
100000
100000
100000
100000
100000
100000
100000
100000
100000
100000
100000
100000
100000
100000
100000
100000
100000
100000
100000
100000
100000
100000
100000
100000
100000
100000
100000
100000
100000
100000
100000
100000
100000
100000
100000
100000
100000
101732.87
102289.1
101095.94
102382.18
101761.29
101940.43
101525.24
101826.77
102010.75
102240.64
101915.45
101216.43
100609.06
100200.29
100045.64
100003.11
99998.918
99999.387
99999.898
99999.997
100000
100000
100000
100000
100000
100000
100000
100000
100000
100000
100000
100000
100000
100000
100000
100000
100000
100000
100000
100000
100000
100000
100000
100000
100000
100000
100000
100000
100000
100000
100000
100000
100000
100000
100000
100000
100000
100000
100000
100000
100000
100000
100000
100000
100000
100000
100000
100000
100000
100000
100000
100000
100000
100000
100000
100000
100000
100000
100000
100000
101891.42
102627.44
101160
102694.68
101900.76
102196.64
101699.44
102004.6
102190.01
102497.43
102157.16
101397.24
100712.77
100239.87
100056.34
100004.41
99998.811
99999.281
99999.872
99999.995
100000
100000
100000
100000
100000
100000
100000
100000
100000
100000
100000
100000
100000
100000
100000
100000
100000
100000
100000
100000
100000
100000
100000
100000
100000
100000
100000
100000
100000
100000
100000
100000
100000
100000
100000
100000
100000
100000
100000
100000
100000
100000
100000
100000
100000
100000
100000
100000
100000
100000
100000
100000
100000
100000
100000
100000
100000
100000
100000
100000
102062.64
103012.99
101241.1
103053.23
102053.09
102490.96
101894.95
102204.02
102384.74
102778.21
102422.99
101599.27
100830.19
100285.43
100068.92
100006.04
99998.709
99999.163
99999.84
99999.992
100000
100000
100000
100000
100000
100000
100000
100000
100000
100000
100000
100000
100000
100000
100000
100000
100000
100000
100000
100000
100000
100000
100000
100000
100000
100000
100000
100000
100000
100000
100000
100000
100000
100000
100000
100000
100000
100000
100000
100000
100000
100000
100000
100000
100000
100000
100000
100000
100000
100000
100000
100000
100000
100000
100000
100000
100000
100000
100000
100000
102256.61
103465.43
101311.55
103461.19
102206.75
102822
102109.11
102428.18
102603.9
103095.32
102723.06
101827.61
100963.12
100337.45
100083.45
100007.99
99998.615
99999.032
99999.803
99999.988
100000
100000
100000
100000
100000
100000
100000
100000
100000
100000
100000
100000
100000
100000
100000
100000
100000
100000
100000
100000
100000
100000
100000
100000
100000
100000
100000
100000
100000
100000
100000
100000
100000
100000
100000
100000
100000
100000
100000
100000
100000
100000
100000
100000
100000
100000
100000
100000
100000
100000
100000
100000
100000
100000
100000
100000
100000
100000
100000
100000
102437.46
103973.33
101399.42
103952.34
102385.79
103193
102341.98
102664.85
102847.22
103454.81
103064.54
102086.46
101112.47
100395.91
100099.77
100010.21
99998.52
99998.889
99999.761
99999.985
100000.01
100000
100000
100000
100000
100000
100000
100000
100000
100000
100000
100000
100000
100000
100000
100000
100000
100000
100000
100000
100000
100000
100000
100000
100000
100000
100000
100000
100000
100000
100000
100000
100000
100000
100000
100000
100000
100000
100000
100000
100000
100000
100000
100000
100000
100000
100000
100000
100000
100000
100000
100000
100000
100000
100000
100000
100000
100000
100000
100000
102577.72
104667.9
101524.14
104463
102565.9
103536.75
102558.96
102925.74
103115.34
103844.34
103436.5
102368.15
101274.43
100459.09
100117.29
100012.58
99998.416
99998.737
99999.719
99999.981
100000.01
100000
100000
100000
100000
100000
100000
100000
100000
100000
100000
100000
100000
100000
100000
100000
100000
100000
100000
100000
100000
100000
100000
100000
100000
100000
100000
100000
100000
100000
100000
100000
100000
100000
100000
100000
100000
100000
100000
100000
100000
100000
100000
100000
100000
100000
100000
100000
100000
100000
100000
100000
100000
100000
100000
100000
100000
100000
100000
100000
102703.94
105416.62
101464.42
104995.49
102612.22
104080.54
102810.98
103266.43
103413.29
104233.23
103808.23
102648.61
101437.24
100521.83
100134.52
100014.84
99998.298
99998.586
99999.679
99999.978
100000.01
100000
100000
100000
100000
100000
100000
100000
100000
100000
100000
100000
100000
100000
100000
100000
100000
100000
100000
100000
100000
100000
100000
100000
100000
100000
100000
100000
100000
100000
100000
100000
100000
100000
100000
100000
100000
100000
100000
100000
100000
100000
100000
100000
100000
100000
100000
100000
100000
100000
100000
100000
100000
100000
100000
100000
100000
100000
100000
100000
102634.77
106143.51
101407.42
105639.35
102730.8
104656.6
103090.92
103612.93
103718.65
104610.25
104153.17
102904.51
101581.89
100575.13
100148.47
100016.43
99998.147
99998.456
99999.65
99999.976
100000.01
100000
100000
100000
100000
100000
100000
100000
100000
100000
100000
100000
100000
100000
100000
100000
100000
100000
100000
100000
100000
100000
100000
100000
100000
100000
100000
100000
100000
100000
100000
100000
100000
100000
100000
100000
100000
100000
100000
100000
100000
100000
100000
100000
100000
100000
100000
100000
100000
100000
100000
100000
100000
100000
100000
100000
100000
100000
100000
100000
102791.33
106970.99
101461.49
106333.1
102868.28
105114.91
103325
103947.69
104054.67
104955.23
104466.44
103109.81
101685.91
100607.59
100155.37
100016.68
99997.948
99998.368
99999.64
99999.977
100000.01
100000
100000
100000
100000
100000
100000
100000
100000
100000
100000
100000
100000
100000
100000
100000
100000
100000
100000
100000
100000
100000
100000
100000
100000
100000
100000
100000
100000
100000
100000
100000
100000
100000
100000
100000
100000
100000
100000
100000
100000
100000
100000
100000
100000
100000
100000
100000
100000
100000
100000
100000
100000
100000
100000
100000
100000
100000
100000
100000
103023.23
107563.85
101485.43
106938.5
102989.49
105415.49
103483.78
104252.08
104391.11
105232.37
104720.99
103233.67
101726.61
100609.42
100152.21
100015.15
99997.707
99998.343
99999.657
99999.98
100000.01
100000
100000
100000
100000
100000
100000
100000
100000
100000
100000
100000
100000
100000
100000
100000
100000
100000
100000
100000
100000
100000
100000
100000
100000
100000
100000
100000
100000
100000
100000
100000
100000
100000
100000
100000
100000
100000
100000
100000
100000
100000
100000
100000
100000
100000
100000
100000
100000
100000
100000
100000
100000
100000
100000
100000
100000
100000
100000
100000
103210.27
107966.85
101362.52
107440.64
103024.59
105442.35
103542.58
104524.36
104676.75
105411.53
104898.71
103254.46
101692.59
100577.32
100138.71
100012
99997.486
99998.394
99999.7
99999.986
100000.01
100000
100000
100000
100000
100000
100000
100000
100000
100000
100000
100000
100000
100000
100000
100000
100000
100000
100000
100000
100000
100000
100000
100000
100000
100000
100000
100000
100000
100000
100000
100000
100000
100000
100000
100000
100000
100000
100000
100000
100000
100000
100000
100000
100000
100000
100000
100000
100000
100000
100000
100000
100000
100000
100000
100000
100000
100000
100000
100000
103139.82
108246.64
101006.06
107769.53
102921.99
105295.54
103369.9
104790.27
104816.05
105586.21
104968.69
103171.64
101591.47
100517.95
100117.88
100008.05
99997.36
99998.517
99999.76
99999.993
100000.01
100000
100000
100000
100000
100000
100000
100000
100000
100000
100000
100000
100000
100000
100000
100000
100000
100000
100000
100000
100000
100000
100000
100000
100000
100000
100000
100000
100000
100000
100000
100000
100000
100000
100000
100000
100000
100000
100000
100000
100000
100000
100000
100000
100000
100000
100000
100000
100000
100000
100000
100000
100000
100000
100000
100000
100000
100000
100000
100000
103067.52
108045.01
100607.33
107799.92
102713.78
105013.65
103146.09
104916.19
104926.73
105694.21
104941.76
103019.78
101456.74
100450.01
100096.04
100004.52
99997.358
99998.684
99999.818
99999.999
100000.01
100000
100000
100000
100000
100000
100000
100000
100000
100000
100000
100000
100000
100000
100000
100000
100000
100000
100000
100000
100000
100000
100000
100000
100000
100000
100000
100000
100000
100000
100000
100000
100000
100000
100000
100000
100000
100000
100000
100000
100000
100000
100000
100000
100000
100000
100000
100000
100000
100000
100000
100000
100000
100000
100000
100000
100000
100000
100000
100000
103134.32
106992.32
100268.67
107433.44
102826.12
104584.52
103045.17
104902.54
105085.36
105685.92
104866.47
102867.99
101341.42
100396.82
100080.09
100002.31
99997.427
99998.836
99999.857
100000
100000.01
100000
100000
100000
100000
100000
100000
100000
100000
100000
100000
100000
100000
100000
100000
100000
100000
100000
100000
100000
100000
100000
100000
100000
100000
100000
100000
100000
100000
100000
100000
100000
100000
100000
100000
100000
100000
100000
100000
100000
100000
100000
100000
100000
100000
100000
100000
100000
100000
100000
100000
100000
100000
100000
100000
100000
100000
100000
100000
100000
103274.96
105763.84
100535.16
106698.39
103121.59
104205.08
103010.47
104886.64
105255.74
105614.22
104826.27
102798.75
101297.76
100378.52
100075.08
100001.73
99997.455
99998.892
99999.868
100000
100000.01
100000
100000
100000
100000
100000
100000
100000
100000
100000
100000
100000
100000
100000
100000
100000
100000
100000
100000
100000
100000
100000
100000
100000
100000
100000
100000
100000
100000
100000
100000
100000
100000
100000
100000
100000
100000
100000
100000
100000
100000
100000
100000
100000
100000
100000
100000
100000
100000
100000
100000
100000
100000
100000
100000
100000
100000
100000
100000
100000
103457.78
105530.71
100619.63
106187.61
103170.1
104059.57
103011.13
104840.87
105319.95
105561.47
104903.4
102900.23
101382.77
100422.01
100089.27
100004.29
99997.482
99998.765
99999.822
99999.999
100000.01
100000
100000
100000
100000
100000
100000
100000
100000
100000
100000
100000
100000
100000
100000
100000
100000
100000
100000
100000
100000
100000
100000
100000
100000
100000
100000
100000
100000
100000
100000
100000
100000
100000
100000
100000
100000
100000
100000
100000
100000
100000
100000
100000
100000
100000
100000
100000
100000
100000
100000
100000
100000
100000
100000
100000
100000
100000
100000
100000
99145.326
98552.836
99145.969
98663.16
99076.756
99002.372
98986.48
98571.686
98645.884
99053.182
99472.834
99819.438
99952.667
99995.759
100000.6
100000.55
100000.1
100000.01
99999.997
99999.999
100000
100000
100000
100000
100000
100000
100000
100000
100000
100000
100000
100000
100000
100000
100000
100000
100000
100000
100000
100000
100000
100000
100000
100000
100000
100000
100000
100000
100000
100000
100000
100000
100000
100000
100000
100000
100000
100000
100000
100000
100000
100000
100000
100000
100000
100000
100000
100000
100000
100000
100000
100000
100000
100000
100000
100000
100000
100000
100000
100000
99145.268
98528.962
99068.449
98717.165
99012.65
98883.971
98883.546
98525.286
98585.502
99021.724
99433.834
99790.396
99941.222
99993.374
100000.48
100000.64
100000.14
100000.02
99999.997
99999.999
100000
100000
100000
100000
100000
100000
100000
100000
100000
100000
100000
100000
100000
100000
100000
100000
100000
100000
100000
100000
100000
100000
100000
100000
100000
100000
100000
100000
100000
100000
100000
100000
100000
100000
100000
100000
100000
100000
100000
100000
100000
100000
100000
100000
100000
100000
100000
100000
100000
100000
100000
100000
100000
100000
100000
100000
100000
100000
100000
100000
99024.071
98430.69
99013.269
98599.372
98937.367
98806.594
98835.401
98513.126
98587.646
99035.885
99443.288
99792.828
99941.423
99993.168
100000.42
100000.62
100000.15
100000.02
99999.997
99999.999
100000
100000
100000
100000
100000
100000
100000
100000
100000
100000
100000
100000
100000
100000
100000
100000
100000
100000
100000
100000
100000
100000
100000
100000
100000
100000
100000
100000
100000
100000
100000
100000
100000
100000
100000
100000
100000
100000
100000
100000
100000
100000
100000
100000
100000
100000
100000
100000
100000
100000
100000
100000
100000
100000
100000
100000
100000
100000
100000
100000
99041.868
98474.319
99043.736
98631.575
98956.992
98842.34
98873.095
98554.175
98625.732
99058.611
99455.399
99796.617
99942.335
99993.198
100000.4
100000.61
100000.14
100000.02
99999.997
99999.999
100000
100000
100000
100000
100000
100000
100000
100000
100000
100000
100000
100000
100000
100000
100000
100000
100000
100000
100000
100000
100000
100000
100000
100000
100000
100000
100000
100000
100000
100000
100000
100000
100000
100000
100000
100000
100000
100000
100000
100000
100000
100000
100000
100000
100000
100000
100000
100000
100000
100000
100000
100000
100000
100000
100000
100000
100000
100000
100000
100000
99062.508
98516.109
99072.344
98665.475
98981.493
98876.392
98907.257
98595.898
98662.482
99081.404
99466.998
99800.228
99943.141
99993.213
100000.37
100000.59
100000.14
100000.02
99999.997
99999.999
100000
100000
100000
100000
100000
100000
100000
100000
100000
100000
100000
100000
100000
100000
100000
100000
100000
100000
100000
100000
100000
100000
100000
100000
100000
100000
100000
100000
100000
100000
100000
100000
100000
100000
100000
100000
100000
100000
100000
100000
100000
100000
100000
100000
100000
100000
100000
100000
100000
100000
100000
100000
100000
100000
100000
100000
100000
100000
100000
100000
99085.808
98559.433
99101.445
98700.069
99006.813
98909.247
98939.99
98635.631
98697.479
99103.267
99478.116
99803.686
99943.905
99993.223
100000.35
100000.58
100000.14
100000.02
99999.997
99999.999
100000
100000
100000
100000
100000
100000
100000
100000
100000
100000
100000
100000
100000
100000
100000
100000
100000
100000
100000
100000
100000
100000
100000
100000
100000
100000
100000
100000
100000
100000
100000
100000
100000
100000
100000
100000
100000
100000
100000
100000
100000
100000
100000
100000
100000
100000
100000
100000
100000
100000
100000
100000
100000
100000
100000
100000
100000
100000
100000
100000
99108.137
98600.95
99129.363
98733.481
99031.178
98940.844
98971.434
98674.089
98731.573
99124.662
99489.08
99807.127
99944.677
99993.238
100000.32
100000.57
100000.14
100000.02
99999.997
99999.999
100000
100000
100000
100000
100000
100000
100000
100000
100000
100000
100000
100000
100000
100000
100000
100000
100000
100000
100000
100000
100000
100000
100000
100000
100000
100000
100000
100000
100000
100000
100000
100000
100000
100000
100000
100000
100000
100000
100000
100000
100000
100000
100000
100000
100000
100000
100000
100000
100000
100000
100000
100000
100000
100000
100000
100000
100000
100000
100000
100000
99130.18
98641.438
99156.546
98766.244
99055.201
98971.719
99002.037
98711.692
98765.089
99145.79
99500
99810.594
99945.468
99993.26
100000.3
100000.56
100000.14
100000.02
99999.997
99999.999
100000
100000
100000
100000
100000
100000
100000
100000
100000
100000
100000
100000
100000
100000
100000
100000
100000
100000
100000
100000
100000
100000
100000
100000
100000
100000
100000
100000
100000
100000
100000
100000
100000
100000
100000
100000
100000
100000
100000
100000
100000
100000
100000
100000
100000
100000
100000
100000
100000
100000
100000
100000
100000
100000
100000
100000
100000
100000
100000
100000
99152.133
98681.347
99183.221
98798.734
99079.174
99002.099
99032.116
98748.745
98798.325
99166.854
99510.997
99814.133
99946.292
99993.29
100000.28
100000.54
100000.14
100000.02
99999.997
99999.999
100000
100000
100000
100000
100000
100000
100000
100000
100000
100000
100000
100000
100000
100000
100000
100000
100000
100000
100000
100000
100000
100000
100000
100000
100000
100000
100000
100000
100000
100000
100000
100000
100000
100000
100000
100000
100000
100000
100000
100000
100000
100000
100000
100000
100000
100000
100000
100000
100000
100000
100000
100000
100000
100000
100000
100000
100000
100000
100000
100000
99174.087
98720.785
99209.485
98831.081
99103.159
99032.167
99061.752
98785.459
98831.435
99187.969
99522.129
99817.766
99947.156
99993.329
100000.25
100000.53
100000.13
100000.02
99999.997
99999.999
100000
100000
100000
100000
100000
100000
100000
100000
100000
100000
100000
100000
100000
100000
100000
100000
100000
100000
100000
100000
100000
100000
100000
100000
100000
100000
100000
100000
100000
100000
100000
100000
100000
100000
100000
100000
100000
100000
100000
100000
100000
100000
100000
100000
100000
100000
100000
100000
100000
100000
100000
100000
100000
100000
100000
100000
100000
100000
100000
100000
99196.271
98760.194
99235.552
98863.631
99127.425
99062.176
99091.248
98822.122
98864.728
99209.348
99533.531
99821.546
99948.076
99993.379
100000.23
100000.52
100000.13
100000.02
99999.998
99999.999
100000
100000
100000
100000
100000
100000
100000
100000
100000
100000
100000
100000
100000
100000
100000
100000
100000
100000
100000
100000
100000
100000
100000
100000
100000
100000
100000
100000
100000
100000
100000
100000
100000
100000
100000
100000
100000
100000
100000
100000
100000
100000
100000
100000
100000
100000
100000
100000
100000
100000
100000
100000
100000
100000
100000
100000
100000
100000
100000
100000
99218.803
98799.75
99261.543
98896.568
99152.101
99092.312
99120.725
98858.975
98898.41
99231.123
99545.281
99825.504
99949.062
99993.442
100000.21
100000.51
100000.13
100000.02
99999.998
99999.999
100000
100000
100000
100000
100000
100000
100000
100000
100000
100000
100000
100000
100000
100000
100000
100000
100000
100000
100000
100000
100000
100000
100000
100000
100000
100000
100000
100000
100000
100000
100000
100000
100000
100000
100000
100000
100000
100000
100000
100000
100000
100000
100000
100000
100000
100000
100000
100000
100000
100000
100000
100000
100000
100000
100000
100000
100000
100000
100000
100000
99241.883
98839.796
99287.641
98930.197
99177.409
99122.819
99150.447
98896.294
98932.772
99253.511
99557.513
99829.694
99950.129
99993.521
100000.19
100000.49
100000.13
100000.02
99999.998
99999.999
100000
100000
100000
100000
100000
100000
100000
100000
100000
100000
100000
100000
100000
100000
100000
100000
100000
100000
100000
100000
100000
100000
100000
100000
100000
100000
100000
100000
100000
100000
100000
100000
100000
100000
100000
100000
100000
100000
100000
100000
100000
100000
100000
100000
100000
100000
100000
100000
100000
100000
100000
100000
100000
100000
100000
100000
100000
100000
100000
100000
99265.702
98880.635
99314.031
98964.782
99203.537
99153.91
99180.608
98934.339
98968.057
99276.684
99570.327
99834.153
99951.29
99993.617
100000.17
100000.48
100000.13
100000.02
99999.998
99999.999
100000
100000
100000
100000
100000
100000
100000
100000
100000
100000
100000
100000
100000
100000
100000
100000
100000
100000
100000
100000
100000
100000
100000
100000
100000
100000
100000
100000
100000
100000
100000
100000
100000
100000
100000
100000
100000
100000
100000
100000
100000
100000
100000
100000
100000
100000
100000
100000
100000
100000
100000
100000
100000
100000
100000
100000
100000
100000
100000
100000
99290.42
98922.502
99340.839
99000.585
99230.671
99185.808
99211.416
98973.374
99004.522
99300.808
99583.828
99838.926
99952.558
99993.732
100000.16
100000.46
100000.12
100000.01
99999.998
99999.999
100000
100000
100000
100000
100000
100000
100000
100000
100000
100000
100000
100000
100000
100000
100000
100000
100000
100000
100000
100000
100000
100000
100000
100000
100000
100000
100000
100000
100000
100000
100000
100000
100000
100000
100000
100000
100000
100000
100000
100000
100000
100000
100000
100000
100000
100000
100000
100000
100000
100000
100000
100000
100000
100000
100000
100000
100000
100000
100000
100000
99316.291
98965.782
99368.301
99037.954
99259.081
99218.76
99243.157
99013.731
99042.492
99326.132
99598.169
99844.074
99953.953
99993.869
100000.14
100000.45
100000.12
100000.01
99999.998
99999.999
100000
100000
100000
100000
100000
100000
100000
100000
100000
100000
100000
100000
100000
100000
100000
100000
100000
100000
100000
100000
100000
100000
100000
100000
100000
100000
100000
100000
100000
100000
100000
100000
100000
100000
100000
100000
100000
100000
100000
100000
100000
100000
100000
100000
100000
100000
100000
100000
100000
100000
100000
100000
100000
100000
100000
100000
100000
100000
100000
100000
99343.541
99010.761
99396.619
99077.199
99288.99
99252.974
99276.111
99055.712
99082.229
99352.851
99613.472
99849.645
99955.49
99994.03
100000.12
100000.43
100000.12
100000.01
99999.998
99999.999
100000
100000
100000
100000
100000
100000
100000
100000
100000
100000
100000
100000
100000
100000
100000
100000
100000
100000
100000
100000
100000
100000
100000
100000
100000
100000
100000
100000
100000
100000
100000
100000
100000
100000
100000
100000
100000
100000
100000
100000
100000
100000
100000
100000
100000
100000
100000
100000
100000
100000
100000
100000
100000
100000
100000
100000
100000
100000
100000
100000
99372.416
99057.772
99425.989
99118.627
99320.654
99288.707
99310.528
99099.63