/*--------------------------------*- C++ -*----------------------------------*\
| =========                 |                                                 |
| \\      /  F ield         | OpenFOAM: The Open Source CFD Toolbox           |
|  \\    /   O peration     | Version:  2406                                  |
|   \\  /    A nd           | Website:  www.openfoam.com                      |
|    \\/     M anipulation  |                                                 |
\*---------------------------------------------------------------------------*/
FoamFile
{
    version     2.0;
    format      ascii;
    arch        "LSB;label=32;scalar=64";
    class       volVectorField;
    location    "8e-05";
    object      U;
}
// * * * * * * * * * * * * * * * * * * * * * * * * * * * * * * * * * * * * * //

dimensions      [0 1 -1 0 0 0 0];

internalField   nonuniform List<vector> 
16000
(
(20.286094 -2.2032454e-21 -0.20924479)
(20.222577 1.6397493e-21 -0.091891038)
(20.250606 1.4276235e-23 -0.049711411)
(20.202409 -1.3158643e-22 -0.18782591)
(20.191889 -1.3985783e-22 -0.022731338)
(20.156633 -1.8560369e-22 -0.12471744)
(20.141546 -6.1653274e-22 -0.065296488)
(20.100808 -6.4710079e-23 -0.13065546)
(20.071472 -2.0657445e-22 -0.099831801)
(20.034907 9.1056999e-22 -0.095109136)
(20.015431 2.423661e-23 -0.048633673)
(20.003899 -4.9065212e-22 -0.023466042)
(20.000835 -3.8748629e-22 -0.0050499794)
(20.000016 -4.8542899e-24 -0.00078008924)
(19.999983 -4.2652791e-24 0.0002564742)
(19.999988 -5.3422606e-24 7.5252989e-05)
(19.999999 -8.9675195e-25 2.0719841e-05)
(20 1.8303181e-27 -1.2346885e-06)
(20 8.8862047e-27 -5.4740072e-07)
(20 -1.5852091e-26 -1.5910044e-07)
(20 -3.6036549e-28 4.784106e-09)
(20 -5.7937395e-29 3.1453721e-09)
(20 2.4538308e-29 6.5692109e-10)
(20 -6.8843368e-31 -2.9998686e-11)
(20 -2.3223103e-31 -1.0958968e-11)
(20 -1.3444781e-31 7.1213607e-13)
(20 8.301127e-33 -1.9799162e-12)
(20 -2.9542929e-33 -3.6844281e-12)
(20 -5.8298612e-35 -4.6200335e-13)
(20 7.7886772e-35 1.8627168e-12)
(20 0 -8.868038e-13)
(20 -8.0084356e-33 6.8561104e-13)
(20 6.7774809e-33 -2.599551e-13)
(20 -2.1340983e-33 -4.7859552e-13)
(20 1.8268512e-32 1.2297224e-13)
(20 1.7981439e-33 -1.0783828e-12)
(20 3.2980814e-33 2.9337538e-12)
(20 -4.504672e-34 -6.7184297e-13)
(20 1.1856844e-33 -1.5323315e-12)
(20 -1.8047214e-33 2.748567e-12)
(20 4.1705837e-34 8.259519e-13)
(20 -1.9908666e-33 9.6141262e-13)
(20 1.1194922e-32 1.9718322e-13)
(20 2.3300603e-34 -1.2632948e-12)
(20 -2.5704259e-34 8.7446396e-13)
(20 1.3089725e-33 -1.8837228e-13)
(20 -5.8695552e-33 1.204806e-12)
(20 2.1027046e-33 -5.0518207e-12)
(20 -4.5740565e-33 -4.030205e-12)
(20 7.6261303e-34 4.6288834e-12)
(20 -1.0451189e-33 4.2191492e-12)
(20 -6.7610982e-34 -1.3037696e-12)
(20 3.0374219e-33 -2.4741686e-12)
(20 8.7055632e-34 -3.3740416e-12)
(20 -1.5994241e-33 -3.7094092e-12)
(20 -5.4614082e-33 8.0050801e-12)
(20 -2.0835976e-33 5.0559435e-12)
(20 -6.9991092e-33 -1.7835834e-12)
(20 1.54658e-33 -1.8448311e-12)
(20 -8.8078736e-33 -3.5823684e-12)
(20 2.7220668e-33 -7.0290534e-14)
(20 -6.4732068e-33 4.0394124e-12)
(20 -1.8661756e-33 4.7167644e-12)
(20 -9.3101072e-34 -3.6291706e-12)
(20 -3.4631616e-35 -1.311209e-12)
(20 -3.0782321e-33 1.8734966e-12)
(20 6.443245e-33 -1.7294255e-12)
(20 -4.9802664e-33 1.8405381e-12)
(20 6.9217591e-33 -4.3283513e-14)
(20 0 -2.3328368e-13)
(20 -3.65243e-34 2.1186022e-12)
(20 -1.5336073e-32 -4.3052439e-12)
(20 9.9837022e-34 -2.2639025e-12)
(20 -4.3533618e-33 1.8829078e-12)
(20 -3.7396929e-33 2.9999375e-12)
(20 -5.524143e-33 -9.9729886e-13)
(20 -5.9625976e-33 -4.4380012e-12)
(20 0 -7.4901525e-13)
(20 1.7978472e-33 1.6867084e-12)
(20 2.0471055e-32 5.2105242e-13)
(20.234714 -2.1443743e-23 -0.30777666)
(20.258722 4.8584006e-22 -0.30724534)
(20.248066 -2.159059e-22 -0.23398784)
(20.223329 9.6994607e-23 -0.40355655)
(20.189079 -8.6719254e-22 -0.23916233)
(20.165801 -6.5871885e-22 -0.31904327)
(20.139792 -1.0692142e-21 -0.26936239)
(20.097138 -6.2226732e-23 -0.36742362)
(20.064612 -6.5294203e-22 -0.32777899)
(20.02788 -2.1399544e-21 -0.29859572)
(20.010894 -4.7276562e-21 -0.16979207)
(20.001961 1.4595536e-21 -0.084757779)
(20.000242 2.7370837e-21 -0.025094277)
(19.999873 2.3928605e-22 -0.0060768197)
(19.999971 -3.1711408e-23 -0.00035678419)
(19.999992 1.62549e-26 0.00010449173)
(20.000001 1.4963599e-24 7.5698155e-05)
(20 -3.8249055e-25 1.1366009e-05)
(20 -1.3057789e-25 8.5945148e-07)
(20 -5.6272612e-27 -3.9913933e-07)
(20 -4.3810309e-27 -7.5312302e-08)
(20 -4.2324456e-28 -7.4571998e-09)
(20 0 1.4960621e-09)
(20 7.763469e-30 2.9750437e-10)
(20 2.284192e-30 2.0446594e-11)
(20 5.6217208e-32 -1.6463742e-12)
(20 4.7659814e-32 -9.9002706e-14)
(20 -1.5418039e-33 -1.1162329e-12)
(20 -1.539952e-34 3.0072137e-13)
(20 -3.3790423e-33 -1.2916512e-12)
(20 -4.1671251e-33 2.1685066e-13)
(20 1.0118304e-33 1.0693092e-13)
(20 -6.906735e-34 -2.8997614e-12)
(20 -7.7806001e-34 -1.1131145e-12)
(20 -1.0518008e-33 -2.3886062e-13)
(20 -3.5608986e-35 4.4632907e-12)
(20 1.3012101e-33 4.5407712e-12)
(20 4.7017534e-33 -3.3553025e-12)
(20 6.6502494e-33 1.3133616e-12)
(20 8.6417454e-34 2.4203995e-12)
(20 1.1603121e-34 -9.7682078e-14)
(20 2.5707069e-34 -2.2935049e-12)
(20 -1.4973742e-33 -1.310481e-12)
(20 8.7204584e-33 2.5236351e-12)
(20 -1.2858999e-33 -2.0928902e-12)
(20 5.8919461e-33 -4.8514829e-12)
(20 3.005045e-33 4.0917314e-13)
(20 4.8150718e-35 -1.9643713e-13)
(20 1.3592957e-33 2.793747e-12)
(20 -1.5800683e-33 5.7588651e-13)
(20 3.7372066e-33 -3.1040911e-12)
(20 2.0746032e-33 -1.2472641e-12)
(20 -8.6241679e-34 -3.1186849e-13)
(20 3.9523487e-34 6.6203867e-12)
(20 2.6305358e-34 1.3642986e-12)
(20 4.8912493e-33 2.6774408e-12)
(20 3.3851706e-33 5.147804e-12)
(20 0 -4.641117e-12)
(20 -8.6123229e-33 -9.2153506e-12)
(20 8.2368507e-35 -3.0732448e-12)
(20 -5.2739933e-33 4.8093209e-12)
(20 2.7958867e-35 2.4301192e-12)
(20 -2.492808e-33 -3.0862799e-12)
(20 -2.8842368e-33 -6.9059847e-13)
(20 4.6852423e-34 6.0905098e-13)
(20 1.4876427e-33 1.3715812e-12)
(20 -2.1855801e-33 3.9965684e-12)
(20 7.4624986e-33 2.2144909e-12)
(20 -3.4693286e-33 -2.4691996e-12)
(20 8.9335378e-33 -3.244628e-12)
(20 -5.9522673e-33 4.8020578e-12)
(20 4.7565617e-34 3.0792815e-12)
(20 1.6586626e-33 -4.2385937e-12)
(20 1.3344422e-34 -2.6632469e-12)
(20 4.731958e-34 1.7694832e-12)
(20 1.8049228e-34 -3.5751469e-13)
(20 -4.924179e-33 2.5971521e-13)
(20 3.882656e-33 -3.7910276e-14)
(20 6.8610937e-35 -2.9850577e-12)
(20 -1.4132711e-33 1.0749889e-12)
(20.163159 -3.3033788e-23 -0.40656157)
(20.278577 -3.2210121e-23 -0.58278413)
(20.249436 2.3667594e-22 -0.4376073)
(20.230476 1.530743e-22 -0.65730582)
(20.185989 9.1507961e-23 -0.47815448)
(20.170944 3.5326142e-22 -0.48813584)
(20.137209 -1.4843555e-21 -0.50509483)
(20.090752 2.1135067e-21 -0.60422752)
(20.055197 0 -0.57209691)
(20.016609 2.8649579e-23 -0.52150231)
(20.002989 -4.0736692e-23 -0.31297429)
(19.996927 2.7855207e-21 -0.16452153)
(19.99822 -1.1441407e-21 -0.054527699)
(19.999246 -9.3019986e-22 -0.014437184)
(19.999877 1.5462303e-22 -0.0015750948)
(19.999991 7.7904388e-24 8.1266648e-05)
(20.000007 2.3008418e-24 0.00013779695)
(20.000002 -8.7423727e-25 3.0833986e-05)
(20 1.5271264e-25 3.6894259e-06)
(20 -4.7581078e-28 -5.1975358e-07)
(20 3.840278e-27 -1.6782815e-07)
(20 -2.3552739e-30 -2.7124028e-08)
(20 2.1237804e-31 1.226881e-09)
(20 -1.0973079e-29 5.9504025e-10)
(20 -3.263362e-30 8.5580929e-11)
(20 -2.5387266e-33 -3.3189709e-12)
(20 -1.3136775e-34 -2.5527691e-13)
(20 -7.2168759e-35 1.0702596e-12)
(20 -3.9626519e-33 -1.5390837e-12)
(20 2.404371e-33 1.4657817e-13)
(20 2.8638325e-33 -8.9970392e-13)
(20 2.6624451e-33 1.7122626e-12)
(20 3.6060656e-34 8.8862237e-13)
(20 -8.8046687e-34 4.3866737e-13)
(20 -4.5297268e-33 2.0764849e-12)
(20 -2.8956979e-34 -1.8607898e-12)
(20 3.7032013e-33 -3.8736658e-12)
(20 -4.6919844e-33 -1.7795026e-12)
(20 1.8094374e-33 2.0639212e-12)
(20 -2.8191045e-33 -1.0532291e-13)
(20 4.2095706e-33 1.4797926e-12)
(20 -5.4877022e-34 2.8355468e-12)
(20 6.870846e-35 -4.1649072e-12)
(20 -4.4084534e-34 -8.7532754e-13)
(20 4.1180904e-35 -1.5781317e-12)
(20 1.0072424e-33 -4.2604259e-12)
(20 -7.2518187e-33 8.2131328e-12)
(20 -7.0451912e-33 8.1047564e-12)
(20 -3.9209112e-33 7.7402425e-13)
(20 9.3425963e-34 -2.2267589e-12)
(20 -5.3033022e-34 -4.2848087e-12)
(20 2.2279337e-35 -1.9457419e-12)
(20 -8.5064313e-34 -5.5717329e-13)
(20 6.752087e-34 1.2460104e-12)
(20 -6.8005508e-34 -4.350231e-12)
(20 -7.7834209e-34 1.3347686e-12)
(20 4.5317169e-33 1.0806369e-11)
(20 -9.8925603e-35 -2.2685284e-12)
(20 2.4374789e-33 -7.91283e-12)
(20 1.0795274e-34 -1.8104585e-12)
(20 1.9486432e-33 -2.3031369e-13)
(20 1.3571792e-33 1.1778175e-12)
(20 2.9200675e-33 4.448276e-14)
(20 -2.3617242e-33 -1.0273885e-13)
(20 1.2373098e-33 5.0548378e-13)
(20 3.0276362e-33 3.7609373e-12)
(20 1.2561767e-33 2.3398353e-12)
(20 -1.5144104e-32 -3.2492004e-12)
(20 1.2810469e-32 7.9855076e-13)
(20 1.9827604e-34 -9.1939033e-13)
(20 1.6138875e-33 -1.766972e-12)
(20 -2.2960987e-33 2.4425334e-12)
(20 7.6423681e-35 1.3933404e-12)
(20 7.2008309e-35 -1.1953123e-12)
(20 1.7455383e-33 -4.0911013e-14)
(20 -8.5850489e-35 2.3650917e-13)
(20 1.0348043e-32 -1.0594355e-12)
(20 -2.4974668e-35 -8.206266e-13)
(20 1.5140917e-33 4.8295398e-13)
(20 3.4711101e-33 -8.713358e-14)
(20.054281 -9.8603579e-22 -0.50832413)
(20.284627 1.13738e-22 -0.85418138)
(20.247808 -8.1772213e-23 -0.65590012)
(20.226065 -1.3118251e-22 -0.9269392)
(20.183908 -9.2179943e-23 -0.70708417)
(20.169834 3.8522405e-23 -0.66894461)
(20.132465 3.2941348e-21 -0.74124648)
(20.079362 3.5426731e-22 -0.83844708)
(20.040593 6.7543712e-23 -0.8308075)
(19.998882 3.670881e-21 -0.76797677)
(19.989946 6.0780791e-21 -0.48085198)
(19.988534 -3.8761673e-22 -0.26268516)
(19.994872 2.1614425e-21 -0.091903425)
(19.998197 -7.8881933e-25 -0.025672323)
(19.999715 -3.4085608e-25 -0.0032859392)
(19.999987 -4.355866e-26 1.606512e-05)
(20.000016 -2.8307626e-24 0.000216974)
(20.000005 -1.3451863e-25 5.5074705e-05)
(20.000001 2.8128953e-26 7.5424144e-06)
(20 -5.656405e-28 -6.8640429e-07)
(20 -5.6978139e-27 -2.8007186e-07)
(20 -5.9975867e-30 -5.1889591e-08)
(20 -7.2551939e-29 1.095002e-09)
(20 1.6333966e-29 9.4822818e-10)
(20 -5.0890525e-30 1.6235214e-10)
(20 3.390828e-31 -2.844137e-12)
(20 -1.115998e-32 -3.5844213e-12)
(20 5.5418557e-33 -1.819189e-13)
(20 -3.7849613e-33 -9.7593496e-13)
(20 -2.1681269e-34 2.5311622e-12)
(20 5.2316288e-33 2.0133092e-12)
(20 -3.1520695e-33 7.126105e-13)
(20 3.5825915e-33 6.951993e-13)
(20 4.4495706e-33 1.0398036e-12)
(20 -2.7413226e-33 8.465464e-13)
(20 1.6602718e-32 -2.990949e-12)
(20 3.6853176e-34 -3.4114994e-12)
(20 -1.2486374e-33 1.8516513e-12)
(20 -4.6358356e-33 -1.4599678e-13)
(20 -8.8793039e-34 -1.9890423e-12)
(20 -9.0273e-34 -1.0413221e-12)
(20 1.7184897e-33 1.8724822e-12)
(20 9.2245087e-34 1.6217647e-12)
(20 8.2942711e-35 -4.3962135e-12)
(20 7.2744171e-33 -3.0206841e-12)
(20 2.9116431e-33 4.1661283e-12)
(20 -8.3505709e-35 7.6046823e-12)
(20 -2.4028572e-33 5.8611137e-12)
(20 -1.5493582e-33 -2.7795368e-12)
(20 -6.0483318e-33 -8.9291542e-12)
(20 8.5019741e-34 -3.1242958e-12)
(20 3.0713356e-33 4.0168309e-12)
(20 -8.0905274e-34 7.8119375e-13)
(20 5.0532071e-34 5.979999e-13)
(20 1.261433e-33 -2.089608e-12)
(20 -4.1918095e-33 4.5855328e-13)
(20 -2.1975944e-33 7.8921171e-12)
(20 1.7578155e-34 7.0970501e-13)
(20 -3.7842695e-34 7.4641996e-13)
(20 3.5813484e-33 -2.1471606e-12)
(20 4.6291402e-33 -3.3388045e-12)
(20 2.2785661e-33 5.1123767e-13)
(20 3.8978175e-33 -5.4286548e-13)
(20 2.3243222e-33 -2.4462124e-12)
(20 1.0065964e-33 7.1247149e-13)
(20 3.0171653e-33 3.6499832e-12)
(20 6.7285326e-35 -3.1345622e-12)
(20 4.1849541e-33 -3.941699e-12)
(20 6.1115029e-33 5.5701233e-12)
(20 1.5651322e-33 4.2861191e-12)
(20 -1.1617378e-34 -8.5023478e-13)
(20 -8.9899041e-35 -9.2217675e-13)
(20 8.6396645e-35 -6.1590637e-13)
(20 1.8492398e-33 -1.7019103e-12)
(20 4.2804989e-35 -3.3780554e-12)
(20 2.3704995e-33 1.8555841e-12)
(20 -1.8559384e-33 3.5372893e-12)
(20 -6.8896559e-33 -1.4784699e-12)
(20 2.7425697e-33 -2.1380397e-12)
(20 -1.9573596e-34 4.5592124e-13)
(19.906288 -9.80891e-22 -0.62149885)
(20.290407 3.0796749e-21 -1.1337964)
(20.241509 0 -0.86381713)
(20.220471 2.9089407e-23 -1.1905172)
(20.179352 2.9983632e-21 -0.93360419)
(20.1633 3.2884418e-21 -0.86634907)
(20.122898 8.3135736e-21 -0.98376923)
(20.065128 1.2678494e-21 -1.0796488)
(20.021163 3.937217e-21 -1.0974578)
(19.974785 1.0992155e-23 -1.0335336)
(19.971535 -6.41386e-21 -0.67008036)
(19.976507 -1.1498512e-20 -0.37959846)
(19.989878 -2.4452468e-22 -0.13879776)
(19.996588 2.173655e-21 -0.040585122)
(19.999441 -2.0269513e-22 -0.0058177916)
(19.999972 2.1854546e-23 -0.0001513055)
(20.000028 -4.4768982e-24 0.00031002986)
(20.000009 4.4077819e-24 8.7106538e-05)
(20.000001 4.96295e-25 1.3383911e-05)
(20 -1.6713958e-26 -7.7783905e-07)
(20 2.2217817e-26 -4.2314523e-07)
(20 -2.4018279e-27 -8.7999241e-08)
(20 -3.2636454e-28 3.3804411e-10)
(20 3.7603672e-29 1.407966e-09)
(20 1.4354883e-30 2.7341177e-10)
(20 -4.7373309e-31 -2.3471142e-12)
(20 -9.4351722e-32 -6.5385517e-12)
(20 -1.3618412e-33 1.7185242e-12)
(20 1.4316363e-33 2.4128546e-12)
(20 1.6787187e-33 -1.1522063e-12)
(20 -2.9035589e-34 2.91235e-12)
(20 5.509365e-33 1.1881117e-12)
(20 3.0411973e-33 -1.9856654e-13)
(20 -1.2945235e-34 -9.4553856e-13)
(20 2.5171201e-34 -1.7900277e-13)
(20 -7.3687683e-34 -2.9132715e-12)
(20 -9.5572081e-36 -3.0072889e-12)
(20 7.1147812e-33 3.6157934e-12)
(20 1.4820966e-34 -9.1977168e-13)
(20 1.3006724e-35 1.7530435e-12)
(20 1.3819996e-34 -4.5655211e-13)
(20 6.1536675e-33 -3.0698106e-12)
(20 2.088118e-33 3.7307791e-13)
(20 -5.635136e-33 -6.44073e-13)
(20 -5.4575154e-34 4.9296544e-12)
(20 7.5142183e-33 3.6497918e-12)
(20 6.8517498e-33 2.2330541e-12)
(20 1.0686698e-33 2.5519333e-12)
(20 5.3096405e-33 -6.0082609e-12)
(20 3.0882996e-33 -4.9923516e-12)
(20 2.4240619e-33 -2.9107453e-12)
(20 -1.563861e-33 -6.51539e-13)
(20 1.8812223e-33 2.4905312e-12)
(20 -9.0112273e-34 -2.1188353e-12)
(20 -1.403589e-33 -8.8571175e-13)
(20 -9.6216714e-34 5.4382289e-13)
(20 -2.6802751e-33 5.047797e-12)
(20 3.1366554e-33 1.362036e-12)
(20 1.5071278e-35 -2.6938961e-13)
(20 4.7247809e-33 4.2983966e-12)
(20 4.9327701e-33 -2.4439694e-12)
(20 5.5264077e-33 -5.1146638e-12)
(20 -9.7081894e-34 4.4642337e-13)
(20 1.3997035e-33 3.3762517e-13)
(20 -4.3181577e-34 1.0467894e-12)
(20 -1.8589035e-33 2.2511238e-12)
(20 -2.250762e-33 -1.5486461e-12)
(20 -1.5495546e-33 -1.9724414e-12)
(20 7.0968287e-34 1.2337127e-12)
(20 2.7997511e-33 1.8014628e-12)
(20 3.2534441e-33 -9.8953191e-13)
(20 -1.2002508e-34 6.3007472e-13)
(20 -1.1613754e-33 2.0665351e-12)
(20 -2.603245e-33 -8.3523441e-13)
(20 3.9824557e-34 3.7563055e-13)
(20 1.0277912e-32 -1.9553283e-12)
(20 9.2451575e-33 -8.1815553e-13)
(20 -1.2000683e-34 1.8180179e-12)
(20 1.2105588e-33 -1.3714887e-12)
(20 1.4763864e-34 2.4444553e-13)
(19.737062 -8.2354385e-23 -0.72331102)
(20.301294 -3.9461231e-21 -1.4213957)
(20.230058 -4.7479852e-22 -1.0825931)
(20.215518 -7.4004574e-23 -1.4402029)
(20.17023 -3.7771287e-23 -1.1797258)
(20.151341 5.6110473e-23 -1.0959748)
(20.10909 2.4100564e-23 -1.2084056)
(20.049656 1.1921703e-20 -1.3105224)
(19.99508 -1.0775175e-21 -1.3826505)
(19.942871 1.0852215e-20 -1.3233184)
(19.946567 1.5995566e-20 -0.88241893)
(19.959814 -6.2572479e-21 -0.51583074)
(19.982688 -7.9694817e-21 -0.19605691)
(19.994172 4.2727177e-21 -0.059724936)
(19.998993 4.1803013e-22 -0.009384708)
(19.999938 -1.8501066e-22 -0.00046812069)
(20.000043 6.6114193e-25 0.00041332388)
(20.000015 -8.5692826e-24 0.00012795961)
(20.000003 -6.6371349e-26 2.1841887e-05)
(20 4.2836582e-26 -7.0525301e-07)
(20 6.6395627e-29 -5.9689061e-07)
(20 1.9457088e-30 -1.3812763e-07)
(20 -9.5030562e-33 -1.5724161e-09)
(20 3.2585948e-31 1.945327e-09)
(20 -1.0886198e-29 4.2951168e-10)
(20 -8.3623809e-31 5.412099e-12)
(20 3.1241895e-34 -5.3300074e-12)
(20 -4.3314787e-32 -1.1131358e-12)
(20 -2.6772897e-33 1.1731239e-12)
(20 -8.5795228e-34 -5.8745022e-13)
(20 -8.1843704e-36 1.0085947e-12)
(20 -9.19328e-36 -4.0738813e-13)
(20 -2.0581012e-33 2.1322025e-12)
(20 -2.2989943e-34 -4.0238391e-13)
(20 1.0297689e-34 2.1093523e-13)
(20 -3.3219969e-33 1.9478182e-12)
(20 -4.556556e-34 -4.7087984e-12)
(20 -7.9956719e-33 -1.8983706e-12)
(20 -4.5971727e-33 1.8911836e-12)
(20 -5.0525941e-33 1.244718e-12)
(20 -4.343723e-33 1.7672988e-12)
(20 -2.876638e-33 3.1889454e-12)
(20 -1.9749975e-33 -2.3145011e-13)
(20 1.5054195e-33 -1.9428774e-12)
(20 5.9935857e-34 2.4523816e-12)
(20 -6.8024109e-34 -1.2976963e-12)
(20 3.1828214e-33 -1.4679642e-13)
(20 6.3338812e-33 1.0570887e-12)
(20 -3.4845747e-33 -5.2998509e-12)
(20 5.1892723e-33 -2.6649145e-12)
(20 1.4872546e-34 7.3196346e-14)
(20 1.2779831e-32 4.3721807e-12)
(20 -1.3881641e-33 1.3117809e-12)
(20 2.9978922e-33 -5.7900117e-12)
(20 -3.1667587e-33 2.2694699e-12)
(20 -2.3842545e-33 4.578928e-12)
(20 2.5567212e-33 -6.6627036e-13)
(20 -3.0954187e-33 -4.1474928e-12)
(20 -4.9473012e-34 1.6491854e-12)
(20 9.3382264e-33 7.6371184e-12)
(20 4.5734535e-33 1.5611151e-12)
(20 -3.337726e-33 -4.6209275e-12)
(20 9.9125489e-33 -4.073401e-12)
(20 -3.6293726e-34 -9.8270053e-13)
(20 5.6381735e-34 1.589513e-12)
(20 1.958547e-33 2.4495147e-13)
(20 -1.3024105e-33 -1.9126882e-12)
(20 -3.16713e-33 1.7671133e-12)
(20 6.2340187e-35 1.1429295e-12)
(20 1.1769034e-33 7.6886803e-15)
(20 8.9799636e-34 -1.8235613e-12)
(20 1.2221806e-33 1.7389287e-12)
(20 -6.4297258e-34 2.5388362e-12)
(20 1.40317e-33 -3.172367e-12)
(20 1.3152102e-35 2.4283547e-13)
(20 -5.612035e-33 2.3099182e-14)
(20 -1.3445922e-33 9.1183746e-13)
(20 2.4738061e-34 1.8348409e-12)
(20 -2.5094917e-33 -2.8316612e-12)
(20 5.4566032e-34 -1.8694494e-13)
(19.554262 1.6773725e-21 -0.81152996)
(20.313906 -5.750908e-21 -1.730122)
(20.21258 7.2645914e-23 -1.3160444)
(20.210115 -7.6859902e-21 -1.6873338)
(20.153583 -6.8292202e-21 -1.449308)
(20.136108 -5.8111286e-21 -1.34741)
(20.091334 -6.3026276e-23 -1.4290041)
(20.030557 -4.1875074e-23 -1.5361919)
(19.959414 4.999709e-22 -1.6863066)
(19.90251 1.1549962e-20 -1.6335686)
(19.914071 8.8267223e-22 -1.1157545)
(19.93742 -7.7142431e-22 -0.67163482)
(19.972709 -4.1384334e-21 -0.26437442)
(19.990694 -3.5497393e-22 -0.083550031)
(19.998302 8.7108665e-23 -0.014166746)
(19.999873 -7.9483928e-23 -0.00097844509)
(20.000062 -2.0472147e-25 0.00052271641)
(20.000023 -3.0828282e-24 0.00017807033)
(20.000004 -1.955299e-25 3.3413352e-05)
(20 1.5230482e-25 -3.829745e-07)
(20 9.6860476e-27 -7.9842795e-07)
(20 5.5964501e-27 -2.0396001e-07)
(20 2.1093394e-31 -5.152511e-09)
(20 -1.9808116e-29 2.5324764e-09)
(20 2.8464427e-29 6.3657038e-10)
(20 4.24356e-30 1.3859767e-11)
(20 6.0924179e-32 -9.3316921e-12)
(20 7.7837707e-32 -3.3577302e-12)
(20 -1.6828274e-32 2.688336e-12)
(20 -5.6177805e-34 2.668552e-12)
(20 -1.706866e-33 -1.2243318e-12)
(20 -2.1650579e-33 6.8545199e-13)
(20 -2.9590966e-33 5.3494954e-13)
(20 -1.264603e-33 -1.6635288e-12)
(20 -3.6064724e-35 -1.6499145e-13)
(20 -1.3735348e-33 2.919721e-12)
(20 7.7048208e-34 -1.1075078e-12)
(20 -1.1428488e-34 6.3103263e-13)
(20 7.9412809e-33 4.4104243e-12)
(20 -2.4460883e-34 2.6094678e-13)
(20 3.4328496e-33 1.1956575e-12)
(20 0 2.0795663e-12)
(20 2.8155048e-33 -2.8590578e-12)
(20 -5.8677857e-34 -8.6781815e-13)
(20 6.7474507e-35 4.9284056e-12)
(20 2.065497e-33 -4.274483e-12)
(20 2.2952631e-33 -4.0036918e-12)
(20 3.6946264e-33 4.8268033e-13)
(20 1.1806145e-32 -1.6578962e-12)
(20 -7.1614373e-34 2.5609256e-12)
(20 4.9756634e-33 -1.5487528e-12)
(20 -2.4304032e-33 2.2843479e-12)
(20 4.6192628e-33 5.9352833e-12)
(20 4.2568891e-34 -1.2465509e-12)
(20 2.0617157e-33 -4.9377382e-12)
(20 1.5947066e-33 -7.5391029e-12)
(20 -2.3727597e-33 -6.0471949e-13)
(20 4.5972201e-34 5.347973e-12)
(20 1.279101e-33 -2.858805e-13)
(20 -1.9900788e-33 -1.0955263e-12)
(20 -1.1037858e-32 7.5154539e-12)
(20 1.4203895e-33 5.9709696e-12)
(20 -3.4190561e-33 -3.0553716e-12)
(20 -5.9319921e-33 -4.2315416e-12)
(20 1.8303931e-33 -8.8070862e-13)
(20 -1.9131312e-33 1.4960491e-12)
(20 -3.1056754e-34 -2.3568794e-12)
(20 2.2506259e-33 -7.0503372e-13)
(20 -1.5245023e-33 1.4602732e-12)
(20 1.6954078e-33 9.3521172e-13)
(20 2.4073208e-34 -2.0268717e-13)
(20 -6.4124414e-33 2.9506483e-13)
(20 1.700495e-33 -8.0855801e-13)
(20 -8.7272453e-34 -1.2497647e-12)
(20 4.7197773e-33 9.5394764e-13)
(20 5.9418124e-34 -7.6707554e-13)
(20 -7.215782e-33 5.0272239e-13)
(20 3.596908e-34 1.9748973e-13)
(20 -1.0434568e-34 1.451299e-12)
(20 2.3155714e-34 -8.621601e-13)
(19.363538 4.0451317e-21 -0.88553679)
(20.326336 -1.307195e-21 -2.0673166)
(20.186925 -5.2076615e-22 -1.5656005)
(20.203745 1.766862e-20 -1.9340014)
(20.129363 -4.510193e-21 -1.7406752)
(20.115987 1.866665e-20 -1.6181488)
(20.070654 -6.1355789e-21 -1.6485397)
(20.004396 1.6670114e-20 -1.7596755)
(19.916003 1.3846828e-23 -2.0116062)
(19.852144 -5.5002661e-21 -1.9590466)
(19.872634 8.8268323e-21 -1.3712724)
(19.908236 1.1466995e-20 -0.84704404)
(19.959305 -5.0419106e-22 -0.34418375)
(19.985868 -2.1297593e-21 -0.11243016)
(19.997286 -7.0920233e-22 -0.020330968)
(19.999762 2.0059352e-22 -0.0017273555)
(20.000084 -2.8986821e-25 0.00063290465)
(20.000035 4.5122059e-24 0.00023762508)
(20.000007 -2.8001513e-24 4.8533516e-05)
(20 -1.3188496e-25 2.8140675e-07)
(20 -3.1890967e-26 -1.0225153e-06)
(20 -1.1865983e-27 -2.8679081e-07)
(20 8.2255667e-28 -1.0987724e-08)
(20 1.5481898e-29 3.1346958e-09)
(20 -2.5991923e-32 8.9811983e-10)
(20 -2.021727e-30 3.4373518e-11)
(20 7.4513148e-32 -7.5952636e-12)
(20 -8.9900998e-32 -1.0345062e-12)
(20 1.125501e-32 9.3062402e-13)
(20 -3.2223455e-33 1.7963267e-12)
(20 -3.6734067e-33 -1.3028711e-12)
(20 1.327467e-34 -2.2958348e-12)
(20 -2.154748e-33 6.6180302e-13)
(20 1.3293711e-33 2.4438259e-12)
(20 -1.0918334e-34 -9.7535319e-13)
(20 5.4035414e-34 -8.4787806e-13)
(20 -2.0264421e-33 -1.4500109e-12)
(20 1.3029032e-34 -6.578448e-13)
(20 2.7787101e-33 2.5804283e-13)
(20 2.7038621e-33 -1.1932397e-12)
(20 -8.9306706e-34 9.0310718e-13)
(20 5.0073564e-33 1.2067306e-12)
(20 3.7553443e-34 -1.7745262e-13)
(20 2.9516362e-33 3.3680286e-12)
(20 4.3457261e-34 4.4798891e-12)
(20 1.8774624e-33 -4.4304554e-12)
(20 2.0722615e-33 -3.3446861e-12)
(20 2.1056928e-33 6.0637394e-12)
(20 7.5889007e-33 4.5590288e-13)
(20 4.6562362e-33 -6.6476868e-12)
(20 3.5948672e-33 -5.9577193e-12)
(20 2.2950766e-33 -1.365407e-12)
(20 -3.8724326e-33 4.3412135e-12)
(20 2.0388412e-33 2.4948295e-12)
(20 -7.4967078e-34 -1.2817578e-12)
(20 1.6964986e-33 -3.9521034e-12)
(20 -7.2430738e-33 -1.7945156e-12)
(20 -1.8760009e-33 2.5828553e-12)
(20 -3.7479489e-35 7.3311331e-13)
(20 3.3075092e-33 -3.270074e-12)
(20 1.0203916e-34 8.7234888e-13)
(20 -9.2043951e-33 2.8623947e-12)
(20 2.0066384e-33 -3.3454657e-12)
(20 8.1108228e-33 3.5178438e-12)
(20 6.6918298e-34 2.5212876e-12)
(20 1.5778128e-33 -1.5683656e-12)
(20 7.9344582e-34 1.5199179e-12)
(20 -1.0542389e-33 2.9103348e-12)
(20 6.8032729e-33 -2.7194555e-12)
(20 -1.1091012e-33 2.0289291e-12)
(20 -2.0259051e-34 3.935629e-12)
(20 6.1606025e-34 -1.8010782e-12)
(20 -7.6424859e-34 -1.4451055e-12)
(20 5.1172609e-33 -1.548198e-12)
(20 -5.9691203e-34 7.6468053e-14)
(20 -8.4766245e-35 5.0191057e-13)
(20 5.4036322e-33 -8.7470044e-13)
(20 -1.9648513e-33 -5.0934325e-13)
(20 1.4655121e-34 1.0022618e-12)
(20 -4.6178885e-33 -1.1066552e-13)
(19.177287 -2.3506379e-21 -0.94222203)
(20.337339 9.5764398e-21 -2.4429109)
(20.151892 8.4572087e-22 -1.833364)
(20.198752 9.7301349e-22 -2.1738981)
(20.097079 4.8459284e-22 -2.0593453)
(20.090673 1.3068528e-20 -1.9012099)
(20.045267 -7.4854943e-21 -1.8865182)
(19.970652 8.7748451e-21 -1.9861507)
(19.865411 2.0028541e-21 -2.3426043)
(19.790227 -4.246899e-22 -2.3055527)
(19.820906 1.0122022e-21 -1.6490423)
(19.871053 -1.0769164e-21 -1.0422359)
(19.941751 6.1124782e-22 -0.43593515)
(19.979355 -3.1319603e-21 -0.14672915)
(19.995847 -7.6574901e-22 -0.02804709)
(19.999586 -1.428893e-22 -0.0027616222)
(20.00011 -5.2590634e-25 0.0007378472)
(20.00005 -5.7164425e-24 0.00030675299)
(20.000011 1.6379035e-25 6.7611472e-05)
(20 -1.794763e-25 1.3837785e-06)
(20 -9.4333124e-27 -1.2620273e-06)
(20 -8.9948537e-27 -3.8770938e-07)
(20 1.0186103e-27 -1.9714194e-08)
(20 -2.8529352e-30 3.7025628e-09)
(20 2.4017205e-29 1.2171199e-09)
(20 -2.6870353e-30 6.1509332e-11)
(20 9.0703632e-33 -1.0938143e-11)
(20 -1.187663e-31 -1.910229e-12)
(20 5.4042225e-34 3.5667525e-13)
(20 0 -1.5390699e-13)
(20 3.2771321e-34 -2.6257552e-13)
(20 1.233742e-34 1.5784113e-12)
(20 -2.254149e-33 1.1129918e-12)
(20 -5.8902723e-34 -4.3784917e-13)
(20 1.8286849e-33 -1.7056994e-14)
(20 -1.8566228e-33 -3.87211e-13)
(20 -3.409337e-33 1.7422971e-12)
(20 -2.7366862e-34 -2.6137845e-12)
(20 -2.6734199e-34 -1.4898973e-12)
(20 -5.7179563e-34 -4.7108266e-13)
(20 5.5497182e-35 -4.3118638e-12)
(20 -1.6691103e-33 8.4122708e-13)
(20 3.2403668e-34 3.3507686e-12)
(20 -8.236093e-34 2.3404521e-12)
(20 -1.110866e-34 1.5659927e-12)
(20 7.040746e-33 2.7592249e-12)
(20 -1.348393e-32 -1.9584831e-12)
(20 -8.726239e-34 2.1940795e-12)
(20 -1.2275979e-32 3.3871017e-12)
(20 -2.5327185e-33 -7.1883934e-12)
(20 3.5918355e-33 -2.9377484e-12)
(20 -2.2419774e-33 1.8944926e-12)
(20 7.1730334e-33 -3.205627e-12)
(20 -3.9204669e-33 9.4474532e-14)
(20 3.1057245e-34 3.853766e-12)
(20 -1.5403914e-32 3.1367961e-12)
(20 8.8041569e-34 -1.1287309e-12)
(20 -1.3845854e-32 -5.857346e-12)
(20 -8.0354714e-33 -4.4623905e-12)
(20 3.6288881e-33 -4.0088243e-12)
(20 9.0234295e-34 -1.2022749e-12)
(20 3.121253e-34 3.9429561e-12)
(20 4.890591e-33 -1.0161734e-14)
(20 -3.0474908e-33 -2.3166154e-12)
(20 4.9559244e-33 -6.8079197e-13)
(20 -6.5808127e-33 4.1506089e-14)
(20 3.9554753e-34 -7.6657551e-13)
(20 1.8765718e-33 1.3389061e-12)
(20 -3.5076113e-34 -4.5401926e-13)
(20 -4.3960626e-34 1.4890756e-12)
(20 -5.22761e-33 4.6243265e-12)
(20 -4.8921878e-33 -5.648113e-13)
(20 8.0461941e-34 1.5311764e-12)
(20 6.7319726e-33 -1.5372428e-13)
(20 2.285958e-33 4.5042332e-13)
(20 -1.3898613e-33 1.709994e-12)
(20 1.5142395e-33 -3.6693751e-12)
(20 0 -1.9550927e-12)
(20 9.0868893e-33 1.3882384e-12)
(20 0 2.8639133e-13)
(19.007675 2.9496211e-21 -0.97892465)
(20.34573 -1.0208757e-21 -2.8699794)
(20.105814 -1.2958593e-21 -2.1184844)
(20.196776 1.2278808e-20 -2.4014124)
(20.053768 -6.8070023e-21 -2.4144991)
(20.060114 7.115617e-21 -2.1964576)
(20.011979 -1.1993495e-22 -2.1499464)
(19.933798 1.0159988e-20 -2.2146092)
(19.804664 -1.0905148e-23 -2.6767585)
(19.714437 8.037008e-23 -2.6764271)
(19.757153 3.4833759e-20 -1.9502141)
(19.824391 1.5727662e-20 -1.2579373)
(19.919167 -1.6496796e-20 -0.54021596)
(19.970743 -3.4421133e-21 -0.1868452)
(19.993859 -8.8321937e-23 -0.037491604)
(19.99932 3.5977968e-22 -0.004130363)
(20.000138 2.9620564e-25 0.0008307388)
(20.000069 6.0022618e-24 0.00038562302)
(20.000016 2.258949e-24 9.1048382e-05)
(20.000001 2.5159366e-25 3.0246417e-06)
(20 2.3978612e-26 -1.5083832e-06)
(20 2.6937666e-27 -5.0773619e-07)
(20 -3.2058062e-27 -3.1958012e-08)
(20 -1.5502354e-29 4.187346e-09)
(20 -2.4303307e-29 1.5985346e-09)
(20 -1.3431602e-29 9.9200767e-11)
(20 -7.3620168e-33 -1.2307856e-11)
(20 -1.1847847e-32 -5.4425469e-12)
(20 4.0145361e-33 7.9622694e-13)
(20 6.1042532e-33 1.5882535e-12)
(20 -3.9432668e-34 -1.2552154e-12)
(20 1.8945192e-34 -4.4032291e-14)
(20 2.8816368e-36 2.7441845e-13)
(20 -2.4977808e-33 -1.4161387e-12)
(20 -5.0973102e-34 2.7498608e-13)
(20 -8.6888664e-33 1.8426818e-12)
(20 -1.1789704e-33 5.6411388e-13)
(20 -4.5840315e-33 -5.9242044e-14)
(20 3.650525e-33 -3.2618536e-12)
(20 8.5779896e-34 -3.6842116e-12)
(20 -3.4042001e-34 -1.0119036e-12)
(20 1.5888893e-33 -1.5345448e-12)
(20 6.8421299e-35 -4.7351419e-13)
(20 2.9646192e-33 3.4459882e-12)
(20 -5.095952e-34 2.836958e-12)
(20 -4.9866613e-35 3.2313148e-12)
(20 -6.1447011e-33 -5.2619444e-13)
(20 -3.3622977e-33 2.1674971e-12)
(20 -2.034146e-33 2.8824159e-12)
(20 0 -4.4065468e-12)
(20 7.5074731e-33 -1.2524839e-12)
(20 2.7086632e-33 1.5494081e-12)
(20 -3.0242584e-33 8.3250049e-13)
(20 2.0412222e-33 -2.4285765e-12)
(20 2.6892429e-33 3.4207547e-12)
(20 4.2442454e-33 9.2267909e-12)
(20 -3.29927e-33 2.2024007e-12)
(20 2.6569235e-33 -6.7754024e-12)
(20 -5.5526331e-34 -9.1916347e-12)
(20 1.6783551e-33 -4.9286926e-12)
(20 9.8058825e-34 1.4544168e-12)
(20 5.3318624e-34 4.2530455e-12)
(20 -7.95806e-33 -2.2530988e-12)
(20 1.4645755e-34 -6.074779e-12)
(20 -1.2655681e-32 6.1190242e-12)
(20 -1.8418287e-33 6.9119224e-12)
(20 -1.4700286e-33 -3.4932263e-12)
(20 3.693557e-33 -3.7895591e-12)
(20 -1.9719881e-33 -3.594693e-12)
(20 1.6361594e-34 -3.0371606e-12)
(20 4.1433234e-33 2.2252122e-12)
(20 3.2167935e-33 4.7162313e-12)
(20 -7.1499774e-34 3.7759621e-13)
(20 5.6842521e-33 -9.5510293e-13)
(20 2.9231644e-33 8.1203633e-13)
(20 9.6551163e-34 -1.8952124e-13)
(20 2.687665e-33 7.2720489e-13)
(20 -8.9730729e-33 -2.4556048e-12)
(20 -6.753352e-33 3.6368951e-13)
(20 1.8145158e-33 3.7626867e-13)
(18.875603 4.2470632e-21 -0.98971602)
(20.354377 -1.1656433e-21 -3.3510864)
(20.04627 -9.529223e-23 -2.4226186)
(20.200455 1.4086574e-21 -2.6162433)
(19.997043 6.9347808e-22 -2.8111289)
(20.025023 -8.1413183e-22 -2.4995238)
(19.970011 9.0949304e-22 -2.4380333)
(19.89262 1.529661e-21 -2.4544274)
(19.731759 -6.2458133e-22 -3.0226581)
(19.623794 -1.8870007e-20 -3.0646481)
(19.679258 -2.7197615e-21 -2.2765047)
(19.766419 4.2998894e-20 -1.4953005)
(19.890466 1.7941954e-20 -0.65784655)
(19.959516 3.715043e-22 -0.23325611)
(19.991166 -2.426496e-21 -0.048859386)
(19.998933 -2.0203109e-23 -0.0058860914)
(20.000166 7.2517121e-24 0.00090422192)
(20.000094 -6.1514317e-24 0.00047441946)
(20.000023 -2.4125241e-25 0.00011924074)
(20.000001 3.369696e-25 5.3133918e-06)
(20 -2.0703996e-28 -1.7518344e-06)
(20 1.1819284e-26 -6.478412e-07)
(20 1.7671119e-28 -4.8331366e-08)
(20 -2.8545118e-30 4.526266e-09)
(20 3.2541708e-29 2.0465131e-09)
(20 6.4587095e-30 1.5015427e-10)
(20 -3.9755951e-33 -1.151525e-11)
(20 7.2447205e-32 -5.5541834e-12)
(20 2.3637905e-33 -2.4853035e-12)
(20 -7.1485646e-34 1.2325384e-12)
(20 -1.7364339e-33 1.0145219e-12)
(20 -2.547109e-33 -1.5145313e-12)
(20 -4.5323456e-34 1.1925145e-12)
(20 1.1606983e-34 1.2474707e-12)
(20 -2.2891759e-33 -2.7041518e-12)
(20 -3.9327267e-33 -1.082929e-12)
(20 7.8217563e-34 1.900614e-12)
(20 6.0810928e-34 -5.2627714e-13)